+ 1.0123 33 83 exp 210 ------- 0 33.0 83.0 0 0 -11.70 11.70 -6.70 6.70
- 1.0123 33 83 exp 210 ------- 0 33.0 83.0 0 0 -11.70 11.70 -6.70 6.70
+ 1.0145 77 27 exp 210 ------- 0 77.1 27.1 0 1 -7.30 7.30 -12.30 12.30
- 1.0145 77 27 exp 210 ------- 0 77.1 27.1 0 1 -7.30 7.30 -12.30 12.30
+ 1.0238 90 40 exp 210 ------- 0 90.1 40.1 0 2 -6.00 6.00 -11.00 11.00
- 1.0238 90 40 exp 210 ------- 0 90.1 40.1 0 2 -6.00 6.00 -11.00 11.00
+ 1.0284 75 25 exp 210 ------- 0 75.1 25.1 0 3 -7.50 7.50 -12.50 12.50
- 1.0284 75 25 exp 210 ------- 0 75.1 25.1 0 3 -7.50 7.50 -12.50 12.50
+ 1.0311 72 22 exp 210 ------- 0 72.1 22.1 0 4 -7.80 7.80 -12.80 12.80
- 1.0311 72 22 exp 210 ------- 0 72.1 22.1 0 4 -7.80 7.80 -12.80 12.80
+ 1.0497 74 24 exp 210 ------- 0 74.1 24.1 0 5 -7.60 7.60 -12.60 12.60
- 1.0497 74 24 exp 210 ------- 0 74.1 24.1 0 5 -7.60 7.60 -12.60 12.60
+ 1.0513 38 88 exp 210 ------- 0 38.0 88.0 0 6 -11.20 11.20 -6.20 6.20
- 1.0513 38 88 exp 210 ------- 0 38.0 88.0 0 6 -11.20 11.20 -6.20 6.20
+ 1.0520 73 23 exp 210 ------- 0 73.1 23.1 0 7 -7.70 7.70 -12.70 12.70
- 1.0520 73 23 exp 210 ------- 0 73.1 23.1 0 7 -7.70 7.70 -12.70 12.70
+ 1.0546 62 12 exp 210 ------- 0 62.1 12.1 0 8 -8.80 8.80 -13.80 13.80
- 1.0546 62 12 exp 210 ------- 0 62.1 12.1 0 8 -8.80 8.80 -13.80 13.80
+ 1.0577 21 71 exp 210 ------- 0 21.0 71.0 0 9 -12.90 12.90 -7.90 7.90
- 1.0577 21 71 exp 210 ------- 0 21.0 71.0 0 9 -12.90 12.90 -7.90 7.90
+ 1.0578 38 88 exp 210 ------- 0 38.0 88.0 1 10 -11.20 11.20 -6.20 6.20
+ 1.0599 20 70 exp 210 ------- 0 20.0 70.0 0 11 -13.00 13.00 -8.00 8.00
- 1.0599 20 70 exp 210 ------- 0 20.0 70.0 0 11 -13.00 13.00 -8.00 8.00
+ 1.0635 78 28 exp 210 ------- 0 78.1 28.1 0 12 -7.20 7.20 -12.20 12.20
- 1.0635 78 28 exp 210 ------- 0 78.1 28.1 0 12 -7.20 7.20 -12.20 12.20
+ 1.0641 51 1 exp 210 ------- 0 51.1 1.1 0 13 -9.90 9.90 -14.90 14.90
- 1.0641 51 1 exp 210 ------- 0 51.1 1.1 0 13 -9.90 9.90 -14.90 14.90
+ 1.0671 39 89 exp 210 ------- 0 39.0 89.0 0 14 -11.10 11.10 -6.10 6.10
- 1.0671 39 89 exp 210 ------- 0 39.0 89.0 0 14 -11.10 11.10 -6.10 6.10
+ 1.0726 35 85 exp 210 ------- 0 35.0 85.0 0 15 -11.50 11.50 -6.50 6.50
- 1.0726 35 85 exp 210 ------- 0 35.0 85.0 0 15 -11.50 11.50 -6.50 6.50
+ 1.0744 14 64 exp 210 ------- 0 14.0 64.0 0 16 -13.60 13.60 -8.60 8.60
- 1.0744 14 64 exp 210 ------- 0 14.0 64.0 0 16 -13.60 13.60 -8.60 8.60
+ 1.0771 96 46 exp 210 ------- 0 96.1 46.1 0 17 -5.40 5.40 -10.40 10.40
- 1.0771 96 46 exp 210 ------- 0 96.1 46.1 0 17 -5.40 5.40 -10.40 10.40
+ 1.0808 16 66 exp 210 ------- 0 16.0 66.0 0 18 -13.40 13.40 -8.40 8.40
- 1.0808 16 66 exp 210 ------- 0 16.0 66.0 0 18 -13.40 13.40 -8.40 8.40
+ 1.0810 63 13 exp 210 ------- 0 63.1 13.1 0 19 -8.70 8.70 -13.70 13.70
- 1.0810 63 13 exp 210 ------- 0 63.1 13.1 0 19 -8.70 8.70 -13.70 13.70
+ 1.0849 72 22 exp 210 ------- 0 72.1 22.1 1 20 -7.80 7.80 -12.80 12.80
+ 1.0895 6 56 exp 210 ------- 0 6.0 56.0 0 21 -14.40 14.40 -9.40 9.40
- 1.0895 6 56 exp 210 ------- 0 6.0 56.0 0 21 -14.40 14.40 -9.40 9.40
+ 1.0932 68 18 exp 210 ------- 0 68.1 18.1 0 22 -8.20 8.20 -13.20 13.20
- 1.0932 68 18 exp 210 ------- 0 68.1 18.1 0 22 -8.20 8.20 -13.20 13.20
+ 1.0933 92 42 exp 210 ------- 0 92.1 42.1 0 23 -5.80 5.80 -10.80 10.80
- 1.0933 92 42 exp 210 ------- 0 92.1 42.1 0 23 -5.80 5.80 -10.80 10.80
+ 1.0952 95 45 exp 210 ------- 0 95.1 45.1 0 24 -5.50 5.50 -10.50 10.50
- 1.0952 95 45 exp 210 ------- 0 95.1 45.1 0 24 -5.50 5.50 -10.50 10.50
+ 1.1015 4 54 exp 210 ------- 0 4.0 54.0 0 25 -14.60 14.60 -9.60 9.60
- 1.1015 4 54 exp 210 ------- 0 4.0 54.0 0 25 -14.60 14.60 -9.60 9.60
+ 1.1021 42 92 exp 210 ------- 0 42.0 92.0 0 26 -10.80 10.80 -5.80 5.80
- 1.1021 42 92 exp 210 ------- 0 42.0 92.0 0 26 -10.80 10.80 -5.80 5.80
+ 1.1123 3 53 exp 210 ------- 0 3.0 53.0 0 27 -14.70 14.70 -9.70 9.70
- 1.1123 3 53 exp 210 ------- 0 3.0 53.0 0 27 -14.70 14.70 -9.70 9.70
+ 1.1157 97 47 exp 210 ------- 0 97.1 47.1 0 28 -5.30 5.30 -10.30 10.30
- 1.1157 97 47 exp 210 ------- 0 97.1 47.1 0 28 -5.30 5.30 -10.30 10.30
+ 1.1183 54 4 exp 210 ------- 0 54.1 4.1 0 29 -9.60 9.60 -14.60 14.60
- 1.1183 54 4 exp 210 ------- 0 54.1 4.1 0 29 -9.60 9.60 -14.60 14.60
+ 1.1212 30 80 exp 210 ------- 0 30.0 80.0 0 30 -12.00 12.00 -7.00 7.00
- 1.1212 30 80 exp 210 ------- 0 30.0 80.0 0 30 -12.00 12.00 -7.00 7.00
+ 1.1291 31 81 exp 210 ------- 0 31.0 81.0 0 31 -11.90 11.90 -6.90 6.90
- 1.1291 31 81 exp 210 ------- 0 31.0 81.0 0 31 -11.90 11.90 -6.90 6.90
+ 1.1359 17 67 exp 210 ------- 0 17.0 67.0 0 32 -13.30 13.30 -8.30 8.30
- 1.1359 17 67 exp 210 ------- 0 17.0 67.0 0 32 -13.30 13.30 -8.30 8.30
+ 1.1405 53 3 exp 210 ------- 0 53.1 3.1 0 33 -9.70 9.70 -14.70 14.70
- 1.1405 53 3 exp 210 ------- 0 53.1 3.1 0 33 -9.70 9.70 -14.70 14.70
+ 1.1442 80 30 exp 210 ------- 0 80.1 30.1 0 34 -7.00 7.00 -12.00 12.00
- 1.1442 80 30 exp 210 ------- 0 80.1 30.1 0 34 -7.00 7.00 -12.00 12.00
+ 1.1534 42 92 exp 210 ------- 0 42.0 92.0 1 35 -10.80 10.80 -5.80 5.80
+ 1.1535 40 90 exp 210 ------- 0 40.0 90.0 0 36 -11.00 11.00 -6.00 6.00
- 1.1535 40 90 exp 210 ------- 0 40.0 90.0 0 36 -11.00 11.00 -6.00 6.00
+ 1.1537 61 11 exp 210 ------- 0 61.1 11.1 0 37 -8.90 8.90 -13.90 13.90
- 1.1537 61 11 exp 210 ------- 0 61.1 11.1 0 37 -8.90 8.90 -13.90 13.90
+ 1.1540 36 86 exp 210 ------- 0 36.0 86.0 0 38 -11.40 11.40 -6.40 6.40
- 1.1540 36 86 exp 210 ------- 0 36.0 86.0 0 38 -11.40 11.40 -6.40 6.40
+ 1.1726 91 41 exp 210 ------- 0 91.1 41.1 0 39 -5.90 5.90 -10.90 10.90
- 1.1726 91 41 exp 210 ------- 0 91.1 41.1 0 39 -5.90 5.90 -10.90 10.90
+ 1.1741 67 17 exp 210 ------- 0 67.1 17.1 0 40 -8.30 8.30 -13.30 13.30
- 1.1741 67 17 exp 210 ------- 0 67.1 17.1 0 40 -8.30 8.30 -13.30 13.30
+ 1.1767 4 54 exp 210 ------- 0 4.0 54.0 1 41 -14.60 14.60 -9.60 9.60
+ 1.1816 47 97 exp 210 ------- 0 47.0 97.0 0 42 -10.30 10.30 -5.30 5.30
- 1.1816 47 97 exp 210 ------- 0 47.0 97.0 0 42 -10.30 10.30 -5.30 5.30
+ 1.1821 32 82 exp 210 ------- 0 32.0 82.0 0 43 -11.80 11.80 -6.80 6.80
- 1.1821 32 82 exp 210 ------- 0 32.0 82.0 0 43 -11.80 11.80 -6.80 6.80
+ 1.1879 33 83 exp 210 ------- 0 33.0 83.0 1 44 -11.70 11.70 -6.70 6.70
+ 1.1964 81 31 exp 210 ------- 0 81.1 31.1 0 45 -6.90 6.90 -11.90 11.90
- 1.1964 81 31 exp 210 ------- 0 81.1 31.1 0 45 -6.90 6.90 -11.90 11.90
+ 1.2007 14 64 exp 210 ------- 0 14.0 64.0 1 46 -13.60 13.60 -8.60 8.60
+ 1.2053 43 93 exp 210 ------- 0 43.0 93.0 0 47 -10.70 10.70 -5.70 5.70
- 1.2053 43 93 exp 210 ------- 0 43.0 93.0 0 47 -10.70 10.70 -5.70 5.70
+ 1.2114 84 34 exp 210 ------- 0 84.1 34.1 0 48 -6.60 6.60 -11.60 11.60
- 1.2114 84 34 exp 210 ------- 0 84.1 34.1 0 48 -6.60 6.60 -11.60 11.60
+ 1.2242 5 55 exp 210 ------- 0 5.0 55.0 0 49 -14.50 14.50 -9.50 9.50
- 1.2242 5 55 exp 210 ------- 0 5.0 55.0 0 49 -14.50 14.50 -9.50 9.50
+ 1.2256 70 20 exp 210 ------- 0 70.1 20.1 0 50 -8.00 8.00 -13.00 13.00
- 1.2256 70 20 exp 210 ------- 0 70.1 20.1 0 50 -8.00 8.00 -13.00 13.00
+ 1.2327 70 20 exp 210 ------- 0 70.1 20.1 1 51 -8.00 8.00 -13.00 13.00
+ 1.2344 36 86 exp 210 ------- 0 36.0 86.0 1 52 -11.40 11.40 -6.40 6.40
+ 1.2432 42 92 exp 210 ------- 0 42.0 92.0 2 53 -10.80 10.80 -5.80 5.80
+ 1.2457 43 93 exp 210 ------- 0 43.0 93.0 1 54 -10.70 10.70 -5.70 5.70
c 1.2539 33 83 exp 210 ------- 0 33.0 83.0 0 0 -11.70 11.70 -6.70 6.70
c 1.2547 77 27 exp 210 ------- 0 77.1 27.1 0 1 -7.30 7.30 -12.30 12.30
+ 1.2585 16 66 exp 210 ------- 0 16.0 66.0 1 55 -13.40 13.40 -8.40 8.40
+ 1.2597 23 73 exp 210 ------- 0 23.0 73.0 0 56 -12.70 12.70 -7.70 7.70
- 1.2597 23 73 exp 210 ------- 0 23.0 73.0 0 56 -12.70 12.70 -7.70 7.70
r 1.2654 90 40 exp 210 ------- 0 90.1 40.1 0 2 -6.00 6.00 -11.00 11.00
r 1.2705 75 25 exp 210 ------- 0 75.1 25.1 0 3 -7.50 7.50 -12.50 12.50
+ 1.2723 94 44 exp 210 ------- 0 94.1 44.1 0 57 -5.60 5.60 -10.60 10.60
- 1.2723 94 44 exp 210 ------- 0 94.1 44.1 0 57 -5.60 5.60 -10.60 10.60
- 1.2725 72 22 exp 210 ------- 0 72.1 22.1 1 20 -7.80 7.80 -12.80 12.80
r 1.2733 72 22 exp 210 ------- 0 72.1 22.1 0 4 -7.80 7.80 -12.80 12.80
c 1.2915 38 88 exp 210 ------- 0 38.0 88.0 0 6 -11.20 11.20 -6.20 6.20
r 1.2917 74 24 exp 210 ------- 0 74.1 24.1 0 5 -7.60 7.60 -12.60 12.60
c 1.2924 73 23 exp 210 ------- 0 73.1 23.1 0 7 -7.70 7.70 -12.70 12.70
+ 1.2934 78 28 exp 210 ------- 0 78.1 28.1 1 58 -7.20 7.20 -12.20 12.20
+ 1.2938 1 51 exp 210 ------- 0 1.0 51.0 0 59 -14.90 14.90 -9.90 9.90
- 1.2938 1 51 exp 210 ------- 0 1.0 51.0 0 59 -14.90 14.90 -9.90 9.90
+ 1.2942 42 92 exp 210 ------- 0 42.0 92.0 3 60 -10.80 10.80 -5.80 5.80
r 1.2971 62 12 exp 210 ------- 0 62.1 12.1 0 8 -8.80 8.80 -13.80 13.80
r 1.2998 21 71 exp 210 ------- 0 21.0 71.0 0 9 -12.90 12.90 -7.90 7.90
r 1.3020 20 70 exp 210 ------- 0 20.0 70.0 0 11 -13.00 13.00 -8.00 8.00
+ 1.3038 26 76 exp 210 ------- 0 26.0 76.0 0 61 -12.40 12.40 -7.40 7.40
- 1.3038 26 76 exp 210 ------- 0 26.0 76.0 0 61 -12.40 12.40 -7.40 7.40
c 1.3047 78 28 exp 210 ------- 0 78.1 28.1 0 12 -7.20 7.20 -12.20 12.20
+ 1.3051 93 43 exp 210 ------- 0 93.1 43.1 0 62 -5.70 5.70 -10.70 10.70
- 1.3051 93 43 exp 210 ------- 0 93.1 43.1 0 62 -5.70 5.70 -10.70 10.70
c 1.3052 51 1 exp 210 ------- 0 51.1 1.1 0 13 -9.90 9.90 -14.90 14.90
r 1.3088 39 89 exp 210 ------- 0 39.0 89.0 0 14 -11.10 11.10 -6.10 6.10
+ 1.3126 76 26 exp 210 ------- 0 76.1 26.1 0 63 -7.40 7.40 -12.40 12.40
- 1.3126 76 26 exp 210 ------- 0 76.1 26.1 0 63 -7.40 7.40 -12.40 12.40
r 1.3144 35 85 exp 210 ------- 0 35.0 85.0 0 15 -11.50 11.50 -6.50 6.50
c 1.3166 14 64 exp 210 ------- 0 14.0 64.0 0 16 -13.60 13.60 -8.60 8.60
c 1.3169 96 46 exp 210 ------- 0 96.1 46.1 0 17 -5.40 5.40 -10.40 10.40
+ 1.3173 43 93 exp 210 ------- 0 43.0 93.0 2 64 -10.70 10.70 -5.70 5.70
c 1.3214 16 66 exp 210 ------- 0 16.0 66.0 0 18 -13.40 13.40 -8.40 8.40
c 1.3223 63 13 exp 210 ------- 0 63.1 13.1 0 19 -8.70 8.70 -13.70 13.70
r 1.3322 6 56 exp 210 ------- 0 6.0 56.0 0 21 -14.40 14.40 -9.40 9.40
c 1.3333 92 42 exp 210 ------- 0 92.1 42.1 0 23 -5.80 5.80 -10.80 10.80
c 1.3337 68 18 exp 210 ------- 0 68.1 18.1 0 22 -8.20 8.20 -13.20 13.20
+ 1.3344 76 26 exp 210 ------- 0 76.1 26.1 1 65 -7.40 7.40 -12.40 12.40
r 1.3367 95 45 exp 210 ------- 0 95.1 45.1 0 24 -5.50 5.50 -10.50 10.50
c 1.3421 42 92 exp 210 ------- 0 42.0 92.0 0 26 -10.80 10.80 -5.80 5.80
c 1.3426 4 54 exp 210 ------- 0 4.0 54.0 0 25 -14.60 14.60 -9.60 9.60
+ 1.3462 70 20 exp 210 ------- 0 70.1 20.1 2 66 -8.00 8.00 -13.00 13.00
r 1.3550 3 53 exp 210 ------- 0 3.0 53.0 0 27 -14.70 14.70 -9.70 9.70
+ 1.3551 34 84 exp 210 ------- 0 34.0 84.0 0 67 -11.60 11.60 -6.60 6.60
- 1.3551 34 84 exp 210 ------- 0 34.0 84.0 0 67 -11.60 11.60 -6.60 6.60
+ 1.3569 72 22 exp 210 ------- 0 72.1 22.1 2 68 -7.80 7.80 -12.80 12.80
r 1.3572 97 47 exp 210 ------- 0 97.1 47.1 0 28 -5.30 5.30 -10.30 10.30
r 1.3610 54 4 exp 210 ------- 0 54.1 4.1 0 29 -9.60 9.60 -14.60 14.60
r 1.3631 30 80 exp 210 ------- 0 30.0 80.0 0 30 -12.00 12.00 -7.00 7.00
+ 1.3676 70 20 exp 210 ------- 0 70.1 20.1 3 69 -8.00 8.00 -13.00 13.00
+ 1.3691 5 55 exp 210 ------- 0 5.0 55.0 1 70 -14.50 14.50 -9.50 9.50
+ 1.3694 70 20 exp 210 ------- 0 70.1 20.1 4 71 -8.00 8.00 -13.00 13.00
+ 1.3700 99 49 exp 210 ------- 0 99.1 49.1 0 72 -5.10 5.10 -10.10 10.10
- 1.3700 99 49 exp 210 ------- 0 99.1 49.1 0 72 -5.10 5.10 -10.10 10.10
r 1.3709 31 81 exp 210 ------- 0 31.0 81.0 0 31 -11.90 11.90 -6.90 6.90
+ 1.3739 77 27 exp 210 ------- 0 77.1 27.1 1 73 -7.30 7.30 -12.30 12.30
r 1.3782 17 67 exp 210 ------- 0 17.0 67.0 0 32 -13.30 13.30 -8.30 8.30
+ 1.3818 13 63 exp 210 ------- 0 13.0 63.0 0 74 -13.70 13.70 -8.70 8.70
- 1.3818 13 63 exp 210 ------- 0 13.0 63.0 0 74 -13.70 13.70 -8.70 8.70
+ 1.3821 96 46 exp 210 ------- 0 96.1 46.1 1 75 -5.40 5.40 -10.40 10.40
r 1.3833 53 3 exp 210 ------- 0 53.1 3.1 0 33 -9.70 9.70 -14.70 14.70
r 1.3861 80 30 exp 210 ------- 0 80.1 30.1 0 34 -7.00 7.00 -12.00 12.00
+ 1.3929 78 28 exp 210 ------- 0 78.1 28.1 2 76 -7.20 7.20 -12.20 12.20
c 1.3935 40 90 exp 210 ------- 0 40.0 90.0 0 36 -11.00 11.00 -6.00 6.00
+ 1.3937 73 23 exp 210 ------- 0 73.1 23.1 1 77 -7.70 7.70 -12.70 12.70
c 1.3941 36 86 exp 210 ------- 0 36.0 86.0 0 38 -11.40 11.40 -6.40 6.40
c 1.3946 61 11 exp 210 ------- 0 61.1 11.1 0 37 -8.90 8.90 -13.90 13.90
+ 1.3950 31 81 exp 210 ------- 0 31.0 81.0 1 78 -11.90 11.90 -6.90 6.90
- 1.3950 31 81 exp 210 ------- 0 31.0 81.0 1 78 -11.90 11.90 -6.90 6.90
+ 1.3980 55 5 exp 210 ------- 0 55.1 5.1 0 79 -9.50 9.50 -14.50 14.50
- 1.3980 55 5 exp 210 ------- 0 55.1 5.1 0 79 -9.50 9.50 -14.50 14.50
+ 1.4016 31 81 exp 210 ------- 0 31.0 81.0 2 80 -11.90 11.90 -6.90 6.90
+ 1.4080 63 13 exp 210 ------- 0 63.1 13.1 1 81 -8.70 8.70 -13.70 13.70
+ 1.4088 61 11 exp 210 ------- 0 61.1 11.1 1 82 -8.90 8.90 -13.90 13.90
+ 1.4130 17 67 exp 210 ------- 0 17.0 67.0 1 83 -13.30 13.30 -8.30 8.30
- 1.4130 17 67 exp 210 ------- 0 17.0 67.0 1 83 -13.30 13.30 -8.30 8.30
+ 1.4138 57 7 exp 210 ------- 0 57.1 7.1 0 84 -9.30 9.30 -14.30 14.30
- 1.4138 57 7 exp 210 ------- 0 57.1 7.1 0 84 -9.30 9.30 -14.30 14.30
r 1.4142 91 41 exp 210 ------- 0 91.1 41.1 0 39 -5.90 5.90 -10.90 10.90
+ 1.4154 43 93 exp 210 ------- 0 43.0 93.0 3 85 -10.70 10.70 -5.70 5.70
r 1.4163 67 17 exp 210 ------- 0 67.1 17.1 0 40 -8.30 8.30 -13.30 13.30
+ 1.4194 74 24 exp 210 ------- 0 74.1 24.1 1 86 -7.60 7.60 -12.60 12.60
- 1.4194 74 24 exp 210 ------- 0 74.1 24.1 1 86 -7.60 7.60 -12.60 12.60
c 1.4221 47 97 exp 210 ------- 0 47.0 97.0 0 42 -10.30 10.30 -5.30 5.30
c 1.4223 32 82 exp 210 ------- 0 32.0 82.0 0 43 -11.80 11.80 -6.80 6.80
+ 1.4272 28 78 exp 210 ------- 0 28.0 78.0 0 87 -12.20 12.20 -7.20 7.20
- 1.4272 28 78 exp 210 ------- 0 28.0 78.0 0 87 -12.20 12.20 -7.20 7.20
+ 1.4296 9 59 exp 210 ------- 0 9.0 59.0 0 88 -14.10 14.10 -9.10 9.10
- 1.4296 9 59 exp 210 ------- 0 9.0 59.0 0 88 -14.10 14.10 -9.10 9.10
+ 1.4304 60 10 exp 210 ------- 0 60.1 10.1 0 89 -9.00 9.00 -14.00 14.00
- 1.4304 60 10 exp 210 ------- 0 60.1 10.1 0 89 -9.00 9.00 -14.00 14.00
r 1.4383 81 31 exp 210 ------- 0 81.1 31.1 0 45 -6.90 6.90 -11.90 11.90
+ 1.4390 95 45 exp 210 ------- 0 95.1 45.1 1 90 -5.50 5.50 -10.50 10.50
- 1.4390 95 45 exp 210 ------- 0 95.1 45.1 1 90 -5.50 5.50 -10.50 10.50
+ 1.4433 9 59 exp 210 ------- 0 9.0 59.0 1 91 -14.10 14.10 -9.10 9.10
r 1.4468 43 93 exp 210 ------- 0 43.0 93.0 0 47 -10.70 10.70 -5.70 5.70
- 1.4474 43 93 exp 210 ------- 0 43.0 93.0 1 54 -10.70 10.70 -5.70 5.70
+ 1.4476 12 62 exp 210 ------- 0 12.0 62.0 0 92 -13.80 13.80 -8.80 8.80
- 1.4476 12 62 exp 210 ------- 0 12.0 62.0 0 92 -13.80 13.80 -8.80 8.80
+ 1.4482 3 53 exp 210 ------- 0 3.0 53.0 1 93 -14.70 14.70 -9.70 9.70
- 1.4482 3 53 exp 210 ------- 0 3.0 53.0 1 93 -14.70 14.70 -9.70 9.70
+ 1.4482 63 13 exp 210 ------- 0 63.1 13.1 2 94 -8.70 8.70 -13.70 13.70
+ 1.4504 44 94 exp 210 ------- 0 44.0 94.0 0 95 -10.60 10.60 -5.60 5.60
- 1.4504 44 94 exp 210 ------- 0 44.0 94.0 0 95 -10.60 10.60 -5.60 5.60
+ 1.4515 18 68 exp 210 ------- 0 18.0 68.0 0 96 -13.20 13.20 -8.20 8.20
- 1.4515 18 68 exp 210 ------- 0 18.0 68.0 0 96 -13.20 13.20 -8.20 8.20
+ 1.4531 19 69 exp 210 ------- 0 19.0 69.0 0 97 -13.10 13.10 -8.10 8.10
- 1.4531 19 69 exp 210 ------- 0 19.0 69.0 0 97 -13.10 13.10 -8.10 8.10
r 1.4531 84 34 exp 210 ------- 0 84.1 34.1 0 48 -6.60 6.60 -11.60 11.60
+ 1.4641 77 27 exp 210 ------- 0 77.1 27.1 2 98 -7.30 7.30 -12.30 12.30
c 1.4655 5 55 exp 210 ------- 0 5.0 55.0 0 49 -14.50 14.50 -9.50 9.50
c 1.4661 70 20 exp 210 ------- 0 70.1 20.1 0 50 -8.00 8.00 -13.00 13.00
+ 1.4678 92 42 exp 210 ------- 0 92.1 42.1 1 99 -5.80 5.80 -10.80 10.80
+ 1.4716 70 20 exp 210 ------- 0 70.1 20.1 5 100 -8.00 8.00 -13.00 13.00
+ 1.4773 14 64 exp 210 ------- 0 14.0 64.0 2 101 -13.60 13.60 -8.60 8.60
+ 1.4858 83 33 exp 210 ------- 0 83.1 33.1 0 102 -6.70 6.70 -11.70 11.70
- 1.4858 83 33 exp 210 ------- 0 83.1 33.1 0 102 -6.70 6.70 -11.70 11.70
+ 1.4924 45 95 exp 210 ------- 0 45.0 95.0 0 103 -10.50 10.50 -5.50 5.50
- 1.4924 45 95 exp 210 ------- 0 45.0 95.0 0 103 -10.50 10.50 -5.50 5.50
+ 1.4968 77 27 exp 210 ------- 0 77.1 27.1 3 104 -7.30 7.30 -12.30 12.30
+ 1.4985 80 30 exp 210 ------- 0 80.1 30.1 1 105 -7.00 7.00 -12.00 12.00
- 1.4985 80 30 exp 210 ------- 0 80.1 30.1 1 105 -7.00 7.00 -12.00 12.00
+ 1.5004 44 94 exp 210 ------- 0 44.0 94.0 1 106 -10.60 10.60 -5.60 5.60
r 1.5018 23 73 exp 210 ------- 0 23.0 73.0 0 56 -12.70 12.70 -7.70 7.70
c 1.5125 94 44 exp 210 ------- 0 94.1 44.1 0 57 -5.60 5.60 -10.60 10.60
c 1.5129 72 22 exp 210 ------- 0 72.1 22.1 1 20 -7.80 7.80 -12.80 12.80
+ 1.5148 55 5 exp 210 ------- 0 55.1 5.1 1 107 -9.50 9.50 -14.50 14.50
+ 1.5165 41 91 exp 210 ------- 0 41.0 91.0 0 108 -10.90 10.90 -5.90 5.90
- 1.5165 41 91 exp 210 ------- 0 41.0 91.0 0 108 -10.90 10.90 -5.90 5.90
+ 1.5174 97 47 exp 210 ------- 0 97.1 47.1 1 109 -5.30 5.30 -10.30 10.30
- 1.5174 97 47 exp 210 ------- 0 97.1 47.1 1 109 -5.30 5.30 -10.30 10.30
+ 1.5186 40 90 exp 210 ------- 0 40.0 90.0 1 110 -11.00 11.00 -6.00 6.00
+ 1.5197 34 84 exp 210 ------- 0 34.0 84.0 1 111 -11.60 11.60 -6.60 6.60
+ 1.5213 63 13 exp 210 ------- 0 63.1 13.1 3 112 -8.70 8.70 -13.70 13.70
+ 1.5239 62 12 exp 210 ------- 0 62.1 12.1 1 113 -8.80 8.80 -13.80 13.80
- 1.5239 62 12 exp 210 ------- 0 62.1 12.1 1 113 -8.80 8.80 -13.80 13.80
+ 1.5269 11 61 exp 210 ------- 0 11.0 61.0 0 114 -13.90 13.90 -8.90 8.90
- 1.5269 11 61 exp 210 ------- 0 11.0 61.0 0 114 -13.90 13.90 -8.90 8.90
c 1.5293 33 83 exp 210 ------- 0 33.0 83.0 0 0 -11.70 11.70 -6.70 6.70
c 1.5301 77 27 exp 210 ------- 0 77.1 27.1 0 1 -7.30 7.30 -12.30 12.30
r 1.5366 1 51 exp 210 ------- 0 1.0 51.0 0 59 -14.90 14.90 -9.90 9.90
+ 1.5396 69 19 exp 210 ------- 0 69.1 19.1 0 115 -8.10 8.10 -13.10 13.10
- 1.5396 69 19 exp 210 ------- 0 69.1 19.1 0 115 -8.10 8.10 -13.10 13.10
+ 1.5401 23 73 exp 210 ------- 0 23.0 73.0 1 116 -12.70 12.70 -7.70 7.70
- 1.5401 23 73 exp 210 ------- 0 23.0 73.0 1 116 -12.70 12.70 -7.70 7.70
c 1.5445 26 76 exp 210 ------- 0 26.0 76.0 0 61 -12.40 12.40 -7.40 7.40
c 1.5449 93 43 exp 210 ------- 0 93.1 43.1 0 62 -5.70 5.70 -10.70 10.70
+ 1.5501 33 83 exp 210 ------- 0 33.0 83.0 2 117 -11.70 11.70 -6.70 6.70
- 1.5538 76 26 exp 210 ------- 0 76.1 26.1 1 65 -7.40 7.40 -12.40 12.40
r 1.5546 76 26 exp 210 ------- 0 76.1 26.1 0 63 -7.40 7.40 -12.40 12.40
+ 1.5553 4 54 exp 210 ------- 0 4.0 54.0 2 118 -14.60 14.60 -9.60 9.60
+ 1.5586 29 79 exp 210 ------- 0 29.0 79.0 0 119 -12.10 12.10 -7.10 7.10
- 1.5586 29 79 exp 210 ------- 0 29.0 79.0 0 119 -12.10 12.10 -7.10 7.10
+ 1.5612 77 27 exp 210 ------- 0 77.1 27.1 4 120 -7.30 7.30 -12.30 12.30
+ 1.5629 35 85 exp 210 ------- 0 35.0 85.0 1 121 -11.50 11.50 -6.50 6.50
- 1.5629 35 85 exp 210 ------- 0 35.0 85.0 1 121 -11.50 11.50 -6.50 6.50
+ 1.5672 50 100 exp 210 ------- 0 50.0 100.0 0 122 -10.00 10.00 -5.00 5.00
- 1.5672 50 100 exp 210 ------- 0 50.0 100.0 0 122 -10.00 10.00 -5.00 5.00
r 1.5683 38 88 exp 210 ------- 0 38.0 88.0 0 6 -11.20 11.20 -6.20 6.20
- 1.5689 38 88 exp 210 ------- 0 38.0 88.0 1 10 -11.20 11.20 -6.20 6.20
+ 1.5711 97 47 exp 210 ------- 0 97.1 47.1 2 123 -5.30 5.30 -10.30 10.30
- 1.5711 73 23 exp 210 ------- 0 73.1 23.1 1 77 -7.70 7.70 -12.70 12.70
+ 1.5712 9 59 exp 210 ------- 0 9.0 59.0 2 124 -14.10 14.10 -9.10 9.10
r 1.5719 73 23 exp 210 ------- 0 73.1 23.1 0 7 -7.70 7.70 -12.70 12.70
+ 1.5753 21 71 exp 210 ------- 0 21.0 71.0 1 125 -12.90 12.90 -7.90 7.90
- 1.5753 21 71 exp 210 ------- 0 21.0 71.0 1 125 -12.90 12.90 -7.90 7.90
+ 1.5827 36 86 exp 210 ------- 0 36.0 86.0 2 126 -11.40 11.40 -6.40 6.40
+ 1.5858 12 62 exp 210 ------- 0 12.0 62.0 1 127 -13.80 13.80 -8.80 8.80
r 1.5872 51 1 exp 210 ------- 0 51.1 1.1 0 13 -9.90 9.90 -14.90 14.90
- 1.5901 78 28 exp 210 ------- 0 78.1 28.1 1 58 -7.20 7.20 -12.20 12.20
r 1.5908 78 28 exp 210 ------- 0 78.1 28.1 0 12 -7.20 7.20 -12.20 12.20
+ 1.5939 49 99 exp 210 ------- 0 49.0 99.0 0 128 -10.10 10.10 -5.10 5.10
- 1.5939 49 99 exp 210 ------- 0 49.0 99.0 0 128 -10.10 10.10 -5.10 5.10
c 1.5960 34 84 exp 210 ------- 0 34.0 84.0 0 67 -11.60 11.60 -6.60 6.60
c 1.5971 63 13 exp 210 ------- 0 63.1 13.1 0 19 -8.70 8.70 -13.70 13.70
c 1.5999 14 64 exp 210 ------- 0 14.0 64.0 0 16 -13.60 13.60 -8.60 8.60
c 1.6001 96 46 exp 210 ------- 0 96.1 46.1 0 17 -5.40 5.40 -10.40 10.40
+ 1.6038 81 31 exp 210 ------- 0 81.1 31.1 1 129 -6.90 6.90 -11.90 11.90
- 1.6038 81 31 exp 210 ------- 0 81.1 31.1 1 129 -6.90 6.90 -11.90 11.90
+ 1.6046 42 92 exp 210 ------- 0 42.0 92.0 4 130 -10.80 10.80 -5.80 5.80
c 1.6095 16 66 exp 210 ------- 0 16.0 66.0 0 18 -13.40 13.40 -8.40 8.40
c 1.6097 99 49 exp 210 ------- 0 99.1 49.1 0 72 -5.10 5.10 -10.10 10.10
c 1.6104 92 42 exp 210 ------- 0 92.1 42.1 0 23 -5.80 5.80 -10.80 10.80
c 1.6156 4 54 exp 210 ------- 0 4.0 54.0 0 25 -14.60 14.60 -9.60 9.60
c 1.6162 68 18 exp 210 ------- 0 68.1 18.1 0 22 -8.20 8.20 -13.20 13.20
+ 1.6226 11 61 exp 210 ------- 0 11.0 61.0 1 131 -13.90 13.90 -8.90 8.90
r 1.6242 13 63 exp 210 ------- 0 13.0 63.0 0 74 -13.70 13.70 -8.70 8.70
+ 1.6342 9 59 exp 210 ------- 0 9.0 59.0 3 132 -14.10 14.10 -9.10 9.10
+ 1.6359 85 35 exp 210 ------- 0 85.1 35.1 0 133 -6.50 6.50 -11.50 11.50
- 1.6359 85 35 exp 210 ------- 0 85.1 35.1 0 133 -6.50 6.50 -11.50 11.50
r 1.6368 31 81 exp 210 ------- 0 31.0 81.0 1 78 -11.90 11.90 -6.90 6.90
+ 1.6373 1 51 exp 210 ------- 0 1.0 51.0 1 134 -14.90 14.90 -9.90 9.90
- 1.6373 1 51 exp 210 ------- 0 1.0 51.0 1 134 -14.90 14.90 -9.90 9.90
- 1.6375 31 81 exp 210 ------- 0 31.0 81.0 2 80 -11.90 11.90 -6.90 6.90
- 1.6398 55 5 exp 210 ------- 0 55.1 5.1 1 107 -9.50 9.50 -14.50 14.50
r 1.6407 55 5 exp 210 ------- 0 55.1 5.1 0 79 -9.50 9.50 -14.50 14.50
+ 1.6466 69 19 exp 210 ------- 0 69.1 19.1 1 135 -8.10 8.10 -13.10 13.10
r 1.6469 42 92 exp 210 ------- 0 42.0 92.0 0 26 -10.80 10.80 -5.80 5.80
- 1.6476 42 92 exp 210 ------- 0 42.0 92.0 1 35 -10.80 10.80 -5.80 5.80
+ 1.6531 42 92 exp 210 ------- 0 42.0 92.0 5 136 -10.80 10.80 -5.80 5.80
c 1.6537 17 67 exp 210 ------- 0 17.0 67.0 1 83 -13.30 13.30 -8.30 8.30
c 1.6547 57 7 exp 210 ------- 0 57.1 7.1 0 84 -9.30 9.30 -14.30 14.30
+ 1.6553 100 50 exp 210 ------- 0 100.1 50.1 0 137 -5.00 5.00 -10.00 10.00
- 1.6553 100 50 exp 210 ------- 0 100.1 50.1 0 137 -5.00 5.00 -10.00 10.00
+ 1.6581 84 34 exp 210 ------- 0 84.1 34.1 1 138 -6.60 6.60 -11.60 11.60
- 1.6581 84 34 exp 210 ------- 0 84.1 34.1 1 138 -6.60 6.60 -11.60 11.60
+ 1.6597 30 80 exp 210 ------- 0 30.0 80.0 1 139 -12.00 12.00 -7.00 7.00
- 1.6597 30 80 exp 210 ------- 0 30.0 80.0 1 139 -12.00 12.00 -7.00 7.00
+ 1.6604 39 89 exp 210 ------- 0 39.0 89.0 1 140 -11.10 11.10 -6.10 6.10
- 1.6604 39 89 exp 210 ------- 0 39.0 89.0 1 140 -11.10 11.10 -6.10 6.10
r 1.6614 74 24 exp 210 ------- 0 74.1 24.1 1 86 -7.60 7.60 -12.60 12.60
r 1.6669 40 90 exp 210 ------- 0 40.0 90.0 0 36 -11.00 11.00 -6.00 6.00
- 1.6676 40 90 exp 210 ------- 0 40.0 90.0 1 110 -11.00 11.00 -6.00 6.00
+ 1.6682 79 29 exp 210 ------- 0 79.1 29.1 0 141 -7.10 7.10 -12.10 12.10
- 1.6682 79 29 exp 210 ------- 0 79.1 29.1 0 141 -7.10 7.10 -12.10 12.10
r 1.6691 28 78 exp 210 ------- 0 28.0 78.0 0 87 -12.20 12.20 -7.20 7.20
c 1.6701 36 86 exp 210 ------- 0 36.0 86.0 0 38 -11.40 11.40 -6.40 6.40
+ 1.6702 27 77 exp 210 ------- 0 27.0 77.0 0 142 -12.30 12.30 -7.30 7.30
- 1.6702 27 77 exp 210 ------- 0 27.0 77.0 0 142 -12.30 12.30 -7.30 7.30
c 1.6704 9 59 exp 210 ------- 0 9.0 59.0 0 88 -14.10 14.10 -9.10 9.10
c 1.6712 60 10 exp 210 ------- 0 60.1 10.1 0 89 -9.00 9.00 -14.00 14.00
+ 1.6745 68 18 exp 210 ------- 0 68.1 18.1 1 143 -8.20 8.20 -13.20 13.20
+ 1.6759 47 97 exp 210 ------- 0 47.0 97.0 1 144 -10.30 10.30 -5.30 5.30
+ 1.6795 25 75 exp 210 ------- 0 25.0 75.0 0 145 -12.50 12.50 -7.50 7.50
- 1.6795 25 75 exp 210 ------- 0 25.0 75.0 0 145 -12.50 12.50 -7.50 7.50
r 1.6805 95 45 exp 210 ------- 0 95.1 45.1 1 90 -5.50 5.50 -10.50 10.50
+ 1.6828 17 67 exp 210 ------- 0 17.0 67.0 2 146 -13.30 13.30 -8.30 8.30
- 1.6855 61 11 exp 210 ------- 0 61.1 11.1 1 82 -8.90 8.90 -13.90 13.90
r 1.6864 61 11 exp 210 ------- 0 61.1 11.1 0 37 -8.90 8.90 -13.90 13.90
c 1.6880 43 93 exp 210 ------- 0 43.0 93.0 1 54 -10.70 10.70 -5.70 5.70
c 1.6883 12 62 exp 210 ------- 0 12.0 62.0 0 92 -13.80 13.80 -8.80 8.80
c 1.6892 3 53 exp 210 ------- 0 3.0 53.0 1 93 -14.70 14.70 -9.70 9.70
+ 1.6898 77 27 exp 210 ------- 0 77.1 27.1 5 147 -7.30 7.30 -12.30 12.30
c 1.6902 44 94 exp 210 ------- 0 44.0 94.0 0 95 -10.60 10.60 -5.60 5.60
c 1.6920 18 68 exp 210 ------- 0 18.0 68.0 0 96 -13.20 13.20 -8.20 8.20
c 1.6936 19 69 exp 210 ------- 0 19.0 69.0 0 97 -13.10 13.10 -8.10 8.10
+ 1.6950 75 25 exp 210 ------- 0 75.1 25.1 1 148 -7.50 7.50 -12.50 12.50
- 1.6950 75 25 exp 210 ------- 0 75.1 25.1 1 148 -7.50 7.50 -12.50 12.50
+ 1.7048 73 23 exp 210 ------- 0 73.1 23.1 2 149 -7.70 7.70 -12.70 12.70
r 1.7081 32 82 exp 210 ------- 0 32.0 82.0 0 43 -11.80 11.80 -6.80 6.80
+ 1.7114 27 77 exp 210 ------- 0 27.0 77.0 1 150 -12.30 12.30 -7.30 7.30
+ 1.7153 74 24 exp 210 ------- 0 74.1 24.1 2 151 -7.60 7.60 -12.60 12.60
- 1.7153 74 24 exp 210 ------- 0 74.1 24.1 2 151 -7.60 7.60 -12.60 12.60
+ 1.7170 76 26 exp 210 ------- 0 76.1 26.1 2 152 -7.40 7.40 -12.40 12.40
r 1.7186 47 97 exp 210 ------- 0 47.0 97.0 0 42 -10.30 10.30 -5.30 5.30
- 1.7192 47 97 exp 210 ------- 0 47.0 97.0 1 144 -10.30 10.30 -5.30 5.30
+ 1.7211 11 61 exp 210 ------- 0 11.0 61.0 2 153 -13.90 13.90 -8.90 8.90
+ 1.7231 64 14 exp 210 ------- 0 64.1 14.1 0 154 -8.60 8.60 -13.60 13.60
- 1.7231 64 14 exp 210 ------- 0 64.1 14.1 0 154 -8.60 8.60 -13.60 13.60
r 1.7275 83 33 exp 210 ------- 0 83.1 33.1 0 102 -6.70 6.70 -11.70 11.70
r 1.7339 45 95 exp 210 ------- 0 45.0 95.0 0 103 -10.50 10.50 -5.50 5.50
+ 1.7365 39 89 exp 210 ------- 0 39.0 89.0 2 155 -11.10 11.10 -6.10 6.10
+ 1.7372 71 21 exp 210 ------- 0 71.1 21.1 0 156 -7.90 7.90 -12.90 12.90
- 1.7372 71 21 exp 210 ------- 0 71.1 21.1 0 156 -7.90 7.90 -12.90 12.90
c 1.7383 5 55 exp 210 ------- 0 5.0 55.0 0 49 -14.50 14.50 -9.50 9.50
c 1.7387 80 30 exp 210 ------- 0 80.1 30.1 1 105 -7.00 7.00 -12.00 12.00
+ 1.7420 67 17 exp 210 ------- 0 67.1 17.1 1 157 -8.30 8.30 -13.30 13.30
- 1.7420 67 17 exp 210 ------- 0 67.1 17.1 1 157 -8.30 8.30 -13.30 13.30
+ 1.7469 6 56 exp 210 ------- 0 6.0 56.0 1 158 -14.40 14.40 -9.40 9.40
- 1.7469 6 56 exp 210 ------- 0 6.0 56.0 1 158 -14.40 14.40 -9.40 9.40
+ 1.7498 97 47 exp 210 ------- 0 97.1 47.1 3 159 -5.30 5.30 -10.30 10.30
- 1.7549 70 20 exp 210 ------- 0 70.1 20.1 1 51 -8.00 8.00 -13.00 13.00
r 1.7557 70 20 exp 210 ------- 0 70.1 20.1 0 50 -8.00 8.00 -13.00 13.00
c 1.7566 41 91 exp 210 ------- 0 41.0 91.0 0 108 -10.90 10.90 -5.90 5.90
c 1.7572 97 47 exp 210 ------- 0 97.1 47.1 1 109 -5.30 5.30 -10.30 10.30
+ 1.7637 15 65 exp 210 ------- 0 15.0 65.0 0 160 -13.50 13.50 -8.50 8.50
- 1.7637 15 65 exp 210 ------- 0 15.0 65.0 0 160 -13.50 13.50 -8.50 8.50
r 1.7663 62 12 exp 210 ------- 0 62.1 12.1 1 113 -8.80 8.80 -13.80 13.80
+ 1.7690 91 41 exp 210 ------- 0 91.1 41.1 1 161 -5.90 5.90 -10.90 10.90
- 1.7690 91 41 exp 210 ------- 0 91.1 41.1 1 161 -5.90 5.90 -10.90 10.90
r 1.7693 11 61 exp 210 ------- 0 11.0 61.0 0 114 -13.90 13.90 -8.90 8.90
- 1.7702 11 61 exp 210 ------- 0 11.0 61.0 1 131 -13.90 13.90 -8.90 8.90
+ 1.7703 89 39 exp 210 ------- 0 89.1 39.1 0 162 -6.10 6.10 -11.10 11.10
- 1.7703 89 39 exp 210 ------- 0 89.1 39.1 0 162 -6.10 6.10 -11.10 11.10
+ 1.7707 59 9 exp 210 ------- 0 59.1 9.1 0 163 -9.10 9.10 -14.10 14.10
- 1.7707 59 9 exp 210 ------- 0 59.1 9.1 0 163 -9.10 9.10 -14.10 14.10
+ 1.7708 55 5 exp 210 ------- 0 55.1 5.1 2 164 -9.50 9.50 -14.50 14.50
+ 1.7750 30 80 exp 210 ------- 0 30.0 80.0 2 165 -12.00 12.00 -7.00 7.00
+ 1.7772 98 48 exp 210 ------- 0 98.1 48.1 0 166 -5.20 5.20 -10.20 10.20
- 1.7772 98 48 exp 210 ------- 0 98.1 48.1 0 166 -5.20 5.20 -10.20 10.20
+ 1.7778 5 55 exp 210 ------- 0 5.0 55.0 2 167 -14.50 14.50 -9.50 9.50
+ 1.7790 97 47 exp 210 ------- 0 97.1 47.1 4 168 -5.30 5.30 -10.30 10.30
c 1.7805 23 73 exp 210 ------- 0 23.0 73.0 1 116 -12.70 12.70 -7.70 7.70
c 1.7813 69 19 exp 210 ------- 0 69.1 19.1 0 115 -8.10 8.10 -13.10 13.10
+ 1.7911 85 35 exp 210 ------- 0 85.1 35.1 1 169 -6.50 6.50 -11.50 11.50
- 1.7912 72 22 exp 210 ------- 0 72.1 22.1 2 68 -7.80 7.80 -12.80 12.80
r 1.7920 72 22 exp 210 ------- 0 72.1 22.1 1 20 -7.80 7.80 -12.80 12.80
- 1.7951 76 26 exp 210 ------- 0 76.1 26.1 2 152 -7.40 7.40 -12.40 12.40
r 1.7958 76 26 exp 210 ------- 0 76.1 26.1 1 65 -7.40 7.40 -12.40 12.40
r 1.8005 29 79 exp 210 ------- 0 29.0 79.0 0 119 -12.10 12.10 -7.10 7.10
+ 1.8018 95 45 exp 210 ------- 0 95.1 45.1 2 170 -5.50 5.50 -10.50 10.50
- 1.8018 95 45 exp 210 ------- 0 95.1 45.1 2 170 -5.50 5.50 -10.50 10.50
c 1.8030 35 85 exp 210 ------- 0 35.0 85.0 1 121 -11.50 11.50 -6.50 6.50
c 1.8035 94 44 exp 210 ------- 0 94.1 44.1 0 57 -5.60 5.60 -10.60 10.60
+ 1.8070 62 12 exp 210 ------- 0 62.1 12.1 2 171 -8.80 8.80 -13.80 13.80
- 1.8070 62 12 exp 210 ------- 0 62.1 12.1 2 171 -8.80 8.80 -13.80 13.80
r 1.8085 50 100 exp 210 ------- 0 50.0 100.0 0 122 -10.00 10.00 -5.00 5.00
+ 1.8102 5 55 exp 210 ------- 0 5.0 55.0 3 172 -14.50 14.50 -9.50 9.50
c 1.8106 38 88 exp 210 ------- 0 38.0 88.0 1 10 -11.20 11.20 -6.20 6.20
c 1.8115 73 23 exp 210 ------- 0 73.1 23.1 1 77 -7.70 7.70 -12.70 12.70
+ 1.8140 41 91 exp 210 ------- 0 41.0 91.0 1 173 -10.90 10.90 -5.90 5.90
r 1.8144 33 83 exp 210 ------- 0 33.0 83.0 0 0 -11.70 11.70 -6.70 6.70
- 1.8151 33 83 exp 210 ------- 0 33.0 83.0 1 44 -11.70 11.70 -6.70 6.70
c 1.8166 21 71 exp 210 ------- 0 21.0 71.0 1 125 -12.90 12.90 -7.90 7.90
c 1.8172 77 27 exp 210 ------- 0 77.1 27.1 0 1 -7.30 7.30 -12.30 12.30
c 1.8178 26 76 exp 210 ------- 0 26.0 76.0 0 61 -12.40 12.40 -7.40 7.40
+ 1.8229 86 36 exp 210 ------- 0 86.1 36.1 0 174 -6.40 6.40 -11.40 11.40
- 1.8229 86 36 exp 210 ------- 0 86.1 36.1 0 174 -6.40 6.40 -11.40 11.40
+ 1.8231 74 24 exp 210 ------- 0 74.1 24.1 3 175 -7.60 7.60 -12.60 12.60
r 1.8236 93 43 exp 210 ------- 0 93.1 43.1 0 62 -5.70 5.70 -10.70 10.70
+ 1.8241 43 93 exp 210 ------- 0 43.0 93.0 4 176 -10.70 10.70 -5.70 5.70
+ 1.8253 44 94 exp 210 ------- 0 44.0 94.0 2 177 -10.60 10.60 -5.60 5.60
+ 1.8292 29 79 exp 210 ------- 0 29.0 79.0 1 178 -12.10 12.10 -7.10 7.10
- 1.8292 29 79 exp 210 ------- 0 29.0 79.0 1 178 -12.10 12.10 -7.10 7.10