+ 1.0047 176 26 exp 210 ------- 0 176.1 26.1 0 0 37.80 -37.80 -7.20 7.20
- 1.0047 176 26 exp 210 ------- 0 176.1 26.1 0 0 37.80 -37.80 -7.20 7.20
+ 1.0136 300 150 exp 210 ------- 0 300.1 150.1 0 1 75.00 -75.00 30.00 -30.00
- 1.0136 300 150 exp 210 ------- 0 300.1 150.1 0 1 75.00 -75.00 30.00 -30.00
+ 1.0192 107 257 exp 210 ------- 0 107.0 257.0 0 2 17.10 -17.10 62.10 -62.10
- 1.0192 107 257 exp 210 ------- 0 107.0 257.0 0 2 17.10 -17.10 62.10 -62.10
+ 1.0195 186 36 exp 210 ------- 0 186.1 36.1 0 3 40.80 -40.80 -4.20 4.20
- 1.0195 186 36 exp 210 ------- 0 186.1 36.1 0 3 40.80 -40.80 -4.20 4.20
+ 1.0208 151 1 exp 210 ------- 0 151.1 1.1 0 4 30.30 -30.30 -14.70 14.70
- 1.0208 151 1 exp 210 ------- 0 151.1 1.1 0 4 30.30 -30.30 -14.70 14.70
+ 1.0210 295 145 exp 210 ------- 0 295.1 145.1 0 5 73.50 -73.50 28.50 -28.50
- 1.0210 295 145 exp 210 ------- 0 295.1 145.1 0 5 73.50 -73.50 28.50 -28.50
+ 1.0364 33 183 exp 210 ------- 0 33.0 183.0 0 6 -5.10 5.10 39.90 -39.90
- 1.0364 33 183 exp 210 ------- 0 33.0 183.0 0 6 -5.10 5.10 39.90 -39.90
+ 1.0410 248 98 exp 210 ------- 0 248.1 98.1 0 7 59.40 -59.40 14.40 -14.40
- 1.0410 248 98 exp 210 ------- 0 248.1 98.1 0 7 59.40 -59.40 14.40 -14.40
+ 1.0429 77 227 exp 210 ------- 0 77.0 227.0 0 8 8.10 -8.10 53.10 -53.10
- 1.0429 77 227 exp 210 ------- 0 77.0 227.0 0 8 8.10 -8.10 53.10 -53.10
+ 1.0440 222 72 exp 210 ------- 0 222.1 72.1 0 9 51.60 -51.60 6.60 -6.60
- 1.0440 222 72 exp 210 ------- 0 222.1 72.1 0 9 51.60 -51.60 6.60 -6.60
+ 1.0650 165 15 exp 210 ------- 0 165.1 15.1 0 10 34.50 -34.50 -10.50 10.50
- 1.0650 165 15 exp 210 ------- 0 165.1 15.1 0 10 34.50 -34.50 -10.50 10.50
+ 1.0701 222 72 exp 210 ------- 0 222.1 72.1 1 11 51.60 -51.60 6.60 -6.60
+ 1.0709 90 240 exp 210 ------- 0 90.0 240.0 0 12 12.00 -12.00 57.00 -57.00
- 1.0709 90 240 exp 210 ------- 0 90.0 240.0 0 12 12.00 -12.00 57.00 -57.00
+ 1.0713 298 148 exp 210 ------- 0 298.1 148.1 0 13 74.40 -74.40 29.40 -29.40
- 1.0713 298 148 exp 210 ------- 0 298.1 148.1 0 13 74.40 -74.40 29.40 -29.40
+ 1.0800 300 150 exp 210 ------- 0 300.1 150.1 1 14 75.00 -75.00 30.00 -30.00
+ 1.0848 75 225 exp 210 ------- 0 75.0 225.0 0 15 7.50 -7.50 52.50 -52.50
- 1.0848 75 225 exp 210 ------- 0 75.0 225.0 0 15 7.50 -7.50 52.50 -52.50
+ 1.0929 72 222 exp 210 ------- 0 72.0 222.0 0 16 6.60 -6.60 51.60 -51.60
- 1.0929 72 222 exp 210 ------- 0 72.0 222.0 0 16 6.60 -6.60 51.60 -51.60
+ 1.0950 296 146 exp 210 ------- 0 296.1 146.1 0 17 73.80 -73.80 28.80 -28.80
- 1.0950 296 146 exp 210 ------- 0 296.1 146.1 0 17 73.80 -73.80 28.80 -28.80
+ 1.1138 269 119 exp 210 ------- 0 269.1 119.1 0 18 65.70 -65.70 20.70 -20.70
- 1.1138 269 119 exp 210 ------- 0 269.1 119.1 0 18 65.70 -65.70 20.70 -20.70
+ 1.1201 189 39 exp 210 ------- 0 189.1 39.1 0 19 41.70 -41.70 -3.30 3.30
- 1.1201 189 39 exp 210 ------- 0 189.1 39.1 0 19 41.70 -41.70 -3.30 3.30
+ 1.1207 148 298 exp 210 ------- 0 148.0 298.0 0 20 29.40 -29.40 74.40 -74.40
- 1.1207 148 298 exp 210 ------- 0 148.0 298.0 0 20 29.40 -29.40 74.40 -74.40
+ 1.1229 261 111 exp 210 ------- 0 261.1 111.1 0 21 63.30 -63.30 18.30 -18.30
- 1.1229 261 111 exp 210 ------- 0 261.1 111.1 0 21 63.30 -63.30 18.30 -18.30
+ 1.1255 240 90 exp 210 ------- 0 240.1 90.1 0 22 57.00 -57.00 12.00 -12.00
- 1.1255 240 90 exp 210 ------- 0 240.1 90.1 0 22 57.00 -57.00 12.00 -12.00
+ 1.1382 212 62 exp 210 ------- 0 212.1 62.1 0 23 48.60 -48.60 3.60 -3.60
- 1.1382 212 62 exp 210 ------- 0 212.1 62.1 0 23 48.60 -48.60 3.60 -3.60
+ 1.1424 211 61 exp 210 ------- 0 211.1 61.1 0 24 48.30 -48.30 3.30 -3.30
- 1.1424 211 61 exp 210 ------- 0 211.1 61.1 0 24 48.30 -48.30 3.30 -3.30
+ 1.1442 246 96 exp 210 ------- 0 246.1 96.1 0 25 58.80 -58.80 13.80 -13.80
- 1.1442 246 96 exp 210 ------- 0 246.1 96.1 0 25 58.80 -58.80 13.80 -13.80
+ 1.1453 77 227 exp 210 ------- 0 77.0 227.0 1 26 8.10 -8.10 53.10 -53.10
+ 1.1486 74 224 exp 210 ------- 0 74.0 224.0 0 27 7.20 -7.20 52.20 -52.20
- 1.1486 74 224 exp 210 ------- 0 74.0 224.0 0 27 7.20 -7.20 52.20 -52.20
+ 1.1501 230 80 exp 210 ------- 0 230.1 80.1 0 28 54.00 -54.00 9.00 -9.00
- 1.1501 230 80 exp 210 ------- 0 230.1 80.1 0 28 54.00 -54.00 9.00 -9.00
+ 1.1504 230 80 exp 210 ------- 0 230.1 80.1 1 29 54.00 -54.00 9.00 -9.00
+ 1.1524 154 4 exp 210 ------- 0 154.1 4.1 0 30 31.20 -31.20 -13.80 13.80
- 1.1524 154 4 exp 210 ------- 0 154.1 4.1 0 30 31.20 -31.20 -13.80 13.80
+ 1.1533 38 188 exp 210 ------- 0 38.0 188.0 0 31 -3.60 3.60 41.40 -41.40
- 1.1533 38 188 exp 210 ------- 0 38.0 188.0 0 31 -3.60 3.60 41.40 -41.40
+ 1.1535 127 277 exp 210 ------- 0 127.0 277.0 0 32 23.10 -23.10 68.10 -68.10
- 1.1535 127 277 exp 210 ------- 0 127.0 277.0 0 32 23.10 -23.10 68.10 -68.10
+ 1.1556 73 223 exp 210 ------- 0 73.0 223.0 0 33 6.90 -6.90 51.90 -51.90
- 1.1556 73 223 exp 210 ------- 0 73.0 223.0 0 33 6.90 -6.90 51.90 -51.90
+ 1.1595 214 64 exp 210 ------- 0 214.1 64.1 0 34 49.20 -49.20 4.20 -4.20
- 1.1595 214 64 exp 210 ------- 0 214.1 64.1 0 34 49.20 -49.20 4.20 -4.20
+ 1.1608 105 255 exp 210 ------- 0 105.0 255.0 0 35 16.50 -16.50 61.50 -61.50
- 1.1608 105 255 exp 210 ------- 0 105.0 255.0 0 35 16.50 -16.50 61.50 -61.50
+ 1.1634 62 212 exp 210 ------- 0 62.0 212.0 0 36 3.60 -3.60 48.60 -48.60
- 1.1634 62 212 exp 210 ------- 0 62.0 212.0 0 36 3.60 -3.60 48.60 -48.60
+ 1.1725 21 171 exp 210 ------- 0 21.0 171.0 0 37 -8.70 8.70 36.30 -36.30
- 1.1725 21 171 exp 210 ------- 0 21.0 171.0 0 37 -8.70 8.70 36.30 -36.30
+ 1.1791 20 170 exp 210 ------- 0 20.0 170.0 0 38 -9.00 9.00 36.00 -36.00
- 1.1791 20 170 exp 210 ------- 0 20.0 170.0 0 38 -9.00 9.00 36.00 -36.00
+ 1.1901 78 228 exp 210 ------- 0 78.0 228.0 0 39 8.40 -8.40 53.40 -53.40
- 1.1901 78 228 exp 210 ------- 0 78.0 228.0 0 39 8.40 -8.40 53.40 -53.40
+ 1.1918 51 201 exp 210 ------- 0 51.0 201.0 0 40 0.30 -0.30 45.30 -45.30
- 1.1918 51 201 exp 210 ------- 0 51.0 201.0 0 40 0.30 -0.30 45.30 -45.30
+ 1.1925 215 65 exp 210 ------- 0 215.1 65.1 0 41 49.50 -49.50 4.50 -4.50
- 1.1925 215 65 exp 210 ------- 0 215.1 65.1 0 41 49.50 -49.50 4.50 -4.50
+ 1.2009 39 189 exp 210 ------- 0 39.0 189.0 0 42 -3.30 3.30 41.70 -41.70
- 1.2009 39 189 exp 210 ------- 0 39.0 189.0 0 42 -3.30 3.30 41.70 -41.70
+ 1.2014 231 81 exp 210 ------- 0 231.1 81.1 0 43 54.30 -54.30 9.30 -9.30
- 1.2014 231 81 exp 210 ------- 0 231.1 81.1 0 43 54.30 -54.30 9.30 -9.30
+ 1.2127 245 95 exp 210 ------- 0 245.1 95.1 0 44 58.50 -58.50 13.50 -13.50
- 1.2127 245 95 exp 210 ------- 0 245.1 95.1 0 44 58.50 -58.50 13.50 -13.50
+ 1.2144 155 5 exp 210 ------- 0 155.1 5.1 0 45 31.50 -31.50 -13.50 13.50
- 1.2144 155 5 exp 210 ------- 0 155.1 5.1 0 45 31.50 -31.50 -13.50 13.50
+ 1.2174 35 185 exp 210 ------- 0 35.0 185.0 0 46 -4.50 4.50 40.50 -40.50
- 1.2174 35 185 exp 210 ------- 0 35.0 185.0 0 46 -4.50 4.50 40.50 -40.50
+ 1.2187 252 102 exp 210 ------- 0 252.1 102.1 0 47 60.60 -60.60 15.60 -15.60
- 1.2187 252 102 exp 210 ------- 0 252.1 102.1 0 47 60.60 -60.60 15.60 -15.60
+ 1.2223 165 15 exp 210 ------- 0 165.1 15.1 1 48 34.50 -34.50 -10.50 10.50
+ 1.2226 14 164 exp 210 ------- 0 14.0 164.0 0 49 -10.80 10.80 34.20 -34.20
- 1.2226 14 164 exp 210 ------- 0 14.0 164.0 0 49 -10.80 10.80 34.20 -34.20
+ 1.2251 126 276 exp 210 ------- 0 126.0 276.0 0 50 22.80 -22.80 67.80 -67.80
- 1.2251 126 276 exp 210 ------- 0 126.0 276.0 0 50 22.80 -22.80 67.80 -67.80
+ 1.2278 259 109 exp 210 ------- 0 259.1 109.1 0 51 62.70 -62.70 17.70 -17.70
- 1.2278 259 109 exp 210 ------- 0 259.1 109.1 0 51 62.70 -62.70 17.70 -17.70
+ 1.2282 202 52 exp 210 ------- 0 202.1 52.1 0 52 45.60 -45.60 0.60 -0.60
- 1.2282 202 52 exp 210 ------- 0 202.1 52.1 0 52 45.60 -45.60 0.60 -0.60
+ 1.2308 96 246 exp 210 ------- 0 96.0 246.0 0 53 13.80 -13.80 58.80 -58.80
- 1.2308 96 246 exp 210 ------- 0 96.0 246.0 0 53 13.80 -13.80 58.80 -58.80
+ 1.2405 139 289 exp 210 ------- 0 139.0 289.0 0 54 26.70 -26.70 71.70 -71.70
- 1.2405 139 289 exp 210 ------- 0 139.0 289.0 0 54 26.70 -26.70 71.70 -71.70
+ 1.2418 16 166 exp 210 ------- 0 16.0 166.0 0 55 -10.20 10.20 34.80 -34.80
- 1.2418 16 166 exp 210 ------- 0 16.0 166.0 0 55 -10.20 10.20 34.80 -34.80
+ 1.2424 63 213 exp 210 ------- 0 63.0 213.0 0 56 3.90 -3.90 48.90 -48.90
- 1.2424 63 213 exp 210 ------- 0 63.0 213.0 0 56 3.90 -3.90 48.90 -48.90
+ 1.2465 261 111 exp 210 ------- 0 261.1 111.1 1 57 63.30 -63.30 18.30 -18.30
r 1.2538 176 26 exp 210 ------- 0 176.1 26.1 0 0 37.80 -37.80 -7.20 7.20
+ 1.2565 231 81 exp 210 ------- 0 231.1 81.1 1 58 54.30 -54.30 9.30 -9.30
+ 1.2681 6 156 exp 210 ------- 0 6.0 156.0 0 59 -13.20 13.20 31.80 -31.80
- 1.2681 6 156 exp 210 ------- 0 6.0 156.0 0 59 -13.20 13.20 31.80 -31.80
r 1.2683 151 1 exp 210 ------- 0 151.1 1.1 0 4 30.30 -30.30 -14.70 14.70
+ 1.2690 136 286 exp 210 ------- 0 136.0 286.0 0 60 25.80 -25.80 70.80 -70.80
- 1.2690 136 286 exp 210 ------- 0 136.0 286.0 0 60 25.80 -25.80 70.80 -70.80
r 1.2695 186 36 exp 210 ------- 0 186.1 36.1 0 3 40.80 -40.80 -4.20 4.20
+ 1.2700 181 31 exp 210 ------- 0 181.1 31.1 0 61 39.30 -39.30 -5.70 5.70
- 1.2700 181 31 exp 210 ------- 0 181.1 31.1 0 61 39.30 -39.30 -5.70 5.70
+ 1.2791 68 218 exp 210 ------- 0 68.0 218.0 0 62 5.40 -5.40 50.40 -50.40
- 1.2791 68 218 exp 210 ------- 0 68.0 218.0 0 62 5.40 -5.40 50.40 -50.40
r 1.2792 107 257 exp 210 ------- 0 107.0 257.0 0 2 17.10 -17.10 62.10 -62.10
+ 1.2794 92 242 exp 210 ------- 0 92.0 242.0 0 63 12.60 -12.60 57.60 -57.60
- 1.2794 92 242 exp 210 ------- 0 92.0 242.0 0 63 12.60 -12.60 57.60 -57.60
r 1.2808 300 150 exp 210 ------- 0 300.1 150.1 0 1 75.00 -75.00 30.00 -30.00
+ 1.2830 266 116 exp 210 ------- 0 266.1 116.1 0 64 64.80 -64.80 19.80 -19.80
- 1.2830 266 116 exp 210 ------- 0 266.1 116.1 0 64 64.80 -64.80 19.80 -19.80
- 1.2835 77 227 exp 210 ------- 0 77.0 227.0 1 26 8.10 -8.10 53.10 -53.10
+ 1.2851 95 245 exp 210 ------- 0 95.0 245.0 0 65 13.50 -13.50 58.50 -58.50
- 1.2851 95 245 exp 210 ------- 0 95.0 245.0 0 65 13.50 -13.50 58.50 -58.50
r 1.2862 33 183 exp 210 ------- 0 33.0 183.0 0 6 -5.10 5.10 39.90 -39.90
r 1.2874 295 145 exp 210 ------- 0 295.1 145.1 0 5 73.50 -73.50 28.50 -28.50
+ 1.2938 166 16 exp 210 ------- 0 166.1 16.1 0 66 34.80 -34.80 -10.20 10.20
- 1.2938 166 16 exp 210 ------- 0 166.1 16.1 0 66 34.80 -34.80 -10.20 10.20
- 1.2961 300 150 exp 210 ------- 0 300.1 150.1 1 14 75.00 -75.00 30.00 -30.00
c 1.2975 222 72 exp 210 ------- 0 222.1 72.1 0 9 51.60 -51.60 6.60 -6.60
+ 1.2980 160 10 exp 210 ------- 0 160.1 10.1 0 67 33.00 -33.00 -12.00 12.00
- 1.2980 160 10 exp 210 ------- 0 160.1 10.1 0 67 33.00 -33.00 -12.00 12.00
r 1.2981 77 227 exp 210 ------- 0 77.0 227.0 0 8 8.10 -8.10 53.10 -53.10
+ 1.2986 239 89 exp 210 ------- 0 239.1 89.1 0 68 56.70 -56.70 11.70 -11.70
- 1.2986 239 89 exp 210 ------- 0 239.1 89.1 0 68 56.70 -56.70 11.70 -11.70
c 1.2988 248 98 exp 210 ------- 0 248.1 98.1 0 7 59.40 -59.40 14.40 -14.40
+ 1.3041 4 154 exp 210 ------- 0 4.0 154.0 0 69 -13.80 13.80 31.20 -31.20
- 1.3041 4 154 exp 210 ------- 0 4.0 154.0 0 69 -13.80 13.80 31.20 -31.20
+ 1.3058 42 192 exp 210 ------- 0 42.0 192.0 0 70 -2.40 2.40 42.60 -42.60
- 1.3058 42 192 exp 210 ------- 0 42.0 192.0 0 70 -2.40 2.40 42.60 -42.60
+ 1.3061 178 28 exp 210 ------- 0 178.1 28.1 0 71 38.40 -38.40 -6.60 6.60
- 1.3061 178 28 exp 210 ------- 0 178.1 28.1 0 71 38.40 -38.40 -6.60 6.60
+ 1.3105 224 74 exp 210 ------- 0 224.1 74.1 0 72 52.20 -52.20 7.20 -7.20
- 1.3105 224 74 exp 210 ------- 0 224.1 74.1 0 72 52.20 -52.20 7.20 -7.20
c 1.3124 165 15 exp 210 ------- 0 165.1 15.1 0 10 34.50 -34.50 -10.50 10.50
c 1.3280 90 240 exp 210 ------- 0 90.0 240.0 0 12 12.00 -12.00 57.00 -57.00
+ 1.3283 159 9 exp 210 ------- 0 159.1 9.1 0 73 32.70 -32.70 -12.30 12.30
- 1.3283 159 9 exp 210 ------- 0 159.1 9.1 0 73 32.70 -32.70 -12.30 12.30
+ 1.3322 259 109 exp 210 ------- 0 259.1 109.1 1 74 62.70 -62.70 17.70 -17.70
+ 1.3363 3 153 exp 210 ------- 0 3.0 153.0 0 75 -14.10 14.10 30.90 -30.90
- 1.3363 3 153 exp 210 ------- 0 3.0 153.0 0 75 -14.10 14.10 30.90 -30.90
c 1.3379 298 148 exp 210 ------- 0 298.1 148.1 0 13 74.40 -74.40 29.40 -29.40
+ 1.3382 274 124 exp 210 ------- 0 274.1 124.1 0 76 67.20 -67.20 22.20 -22.20
- 1.3382 274 124 exp 210 ------- 0 274.1 124.1 0 76 67.20 -67.20 22.20 -22.20
+ 1.3397 90 240 exp 210 ------- 0 90.0 240.0 1 77 12.00 -12.00 57.00 -57.00
r 1.3397 75 225 exp 210 ------- 0 75.0 225.0 0 15 7.50 -7.50 52.50 -52.50
+ 1.3400 152 2 exp 210 ------- 0 152.1 2.1 0 78 30.60 -30.60 -14.40 14.40
- 1.3400 152 2 exp 210 ------- 0 152.1 2.1 0 78 30.60 -30.60 -14.40 14.40
+ 1.3454 258 108 exp 210 ------- 0 258.1 108.1 0 79 62.40 -62.40 17.40 -17.40
- 1.3454 258 108 exp 210 ------- 0 258.1 108.1 0 79 62.40 -62.40 17.40 -17.40
c 1.3465 72 222 exp 210 ------- 0 72.0 222.0 0 16 6.60 -6.60 51.60 -51.60
+ 1.3467 97 247 exp 210 ------- 0 97.0 247.0 0 80 14.10 -14.10 59.10 -59.10
- 1.3467 97 247 exp 210 ------- 0 97.0 247.0 0 80 14.10 -14.10 59.10 -59.10
+ 1.3499 187 37 exp 210 ------- 0 187.1 37.1 0 81 41.10 -41.10 -3.90 3.90
- 1.3499 187 37 exp 210 ------- 0 187.1 37.1 0 81 41.10 -41.10 -3.90 3.90
+ 1.3515 208 58 exp 210 ------- 0 208.1 58.1 0 82 47.40 -47.40 2.40 -2.40
- 1.3515 208 58 exp 210 ------- 0 208.1 58.1 0 82 47.40 -47.40 2.40 -2.40
+ 1.3526 251 101 exp 210 ------- 0 251.1 101.1 0 83 60.30 -60.30 15.30 -15.30
- 1.3526 251 101 exp 210 ------- 0 251.1 101.1 0 83 60.30 -60.30 15.30 -15.30
+ 1.3543 54 204 exp 210 ------- 0 54.0 204.0 0 84 1.20 -1.20 46.20 -46.20
- 1.3543 54 204 exp 210 ------- 0 54.0 204.0 0 84 1.20 -1.20 46.20 -46.20
+ 1.3547 227 77 exp 210 ------- 0 227.1 77.1 0 85 53.10 -53.10 8.10 -8.10
- 1.3547 227 77 exp 210 ------- 0 227.1 77.1 0 85 53.10 -53.10 8.10 -8.10
+ 1.3604 219 69 exp 210 ------- 0 219.1 69.1 0 86 50.70 -50.70 5.70 -5.70
- 1.3604 219 69 exp 210 ------- 0 219.1 69.1 0 86 50.70 -50.70 5.70 -5.70
r 1.3615 296 146 exp 210 ------- 0 296.1 146.1 0 17 73.80 -73.80 28.80 -28.80
+ 1.3631 30 180 exp 210 ------- 0 30.0 180.0 0 87 -6.00 6.00 39.00 -39.00
- 1.3631 30 180 exp 210 ------- 0 30.0 180.0 0 87 -6.00 6.00 39.00 -39.00
r 1.3704 189 39 exp 210 ------- 0 189.1 39.1 0 19 41.70 -41.70 -3.30 3.30
+ 1.3710 203 53 exp 210 ------- 0 203.1 53.1 0 88 45.90 -45.90 0.90 -0.90
- 1.3710 203 53 exp 210 ------- 0 203.1 53.1 0 88 45.90 -45.90 0.90 -0.90
+ 1.3711 63 213 exp 210 ------- 0 63.0 213.0 1 89 3.90 -3.90 48.90 -48.90
+ 1.3747 292 142 exp 210 ------- 0 292.1 142.1 0 90 72.60 -72.60 27.60 -27.60
- 1.3747 292 142 exp 210 ------- 0 292.1 142.1 0 90 72.60 -72.60 27.60 -27.60
r 1.3758 269 119 exp 210 ------- 0 269.1 119.1 0 18 65.70 -65.70 20.70 -20.70
+ 1.3786 117 267 exp 210 ------- 0 117.0 267.0 0 91 20.10 -20.10 65.10 -65.10
- 1.3786 117 267 exp 210 ------- 0 117.0 267.0 0 91 20.10 -20.10 65.10 -65.10
c 1.3818 240 90 exp 210 ------- 0 240.1 90.1 0 22 57.00 -57.00 12.00 -12.00
c 1.3832 261 111 exp 210 ------- 0 261.1 111.1 0 21 63.30 -63.30 18.30 -18.30
+ 1.3868 31 181 exp 210 ------- 0 31.0 181.0 0 92 -5.70 5.70 39.30 -39.30
- 1.3868 31 181 exp 210 ------- 0 31.0 181.0 0 92 -5.70 5.70 39.30 -39.30
r 1.3876 148 298 exp 210 ------- 0 148.0 298.0 0 20 29.40 -29.40 74.40 -74.40
r 1.3913 212 62 exp 210 ------- 0 212.1 62.1 0 23 48.60 -48.60 3.60 -3.60
c 1.3948 211 61 exp 210 ------- 0 211.1 61.1 0 24 48.30 -48.30 3.30 -3.30
+ 1.3986 96 246 exp 210 ------- 0 96.0 246.0 1 93 13.80 -13.80 58.80 -58.80
+ 1.3995 246 96 exp 210 ------- 0 246.1 96.1 1 94 58.80 -58.80 13.80 -13.80
r 1.4000 154 4 exp 210 ------- 0 154.1 4.1 0 30 31.20 -31.20 -13.80 13.80
r 1.4023 246 96 exp 210 ------- 0 246.1 96.1 0 25 58.80 -58.80 13.80 -13.80
r 1.4033 74 224 exp 210 ------- 0 74.0 224.0 0 27 7.20 -7.20 52.20 -52.20
r 1.4035 38 188 exp 210 ------- 0 38.0 188.0 0 31 -3.60 3.60 41.40 -41.40
r 1.4057 230 80 exp 210 ------- 0 230.1 80.1 0 28 54.00 -54.00 9.00 -9.00
+ 1.4073 17 167 exp 210 ------- 0 17.0 167.0 0 95 -9.90 9.90 35.10 -35.10
- 1.4073 17 167 exp 210 ------- 0 17.0 167.0 0 95 -9.90 9.90 35.10 -35.10
c 1.4094 73 223 exp 210 ------- 0 73.0 223.0 0 33 6.90 -6.90 51.90 -51.90
c 1.4120 214 64 exp 210 ------- 0 214.1 64.1 0 34 49.20 -49.20 4.20 -4.20
c 1.4156 62 212 exp 210 ------- 0 62.0 212.0 0 36 3.60 -3.60 48.60 -48.60
r 1.4168 127 277 exp 210 ------- 0 127.0 277.0 0 32 23.10 -23.10 68.10 -68.10
+ 1.4178 160 10 exp 210 ------- 0 160.1 10.1 1 96 33.00 -33.00 -12.00 12.00
- 1.4180 246 96 exp 210 ------- 0 246.1 96.1 1 94 58.80 -58.80 13.80 -13.80
+ 1.4193 271 121 exp 210 ------- 0 271.1 121.1 0 97 66.30 -66.30 21.30 -21.30
- 1.4193 271 121 exp 210 ------- 0 271.1 121.1 0 97 66.30 -66.30 21.30 -21.30
+ 1.4194 288 138 exp 210 ------- 0 288.1 138.1 0 98 71.40 -71.40 26.40 -26.40
- 1.4194 288 138 exp 210 ------- 0 288.1 138.1 0 98 71.40 -71.40 26.40 -26.40
c 1.4202 105 255 exp 210 ------- 0 105.0 255.0 0 35 16.50 -16.50 61.50 -61.50
c 1.4203 21 171 exp 210 ------- 0 21.0 171.0 0 37 -8.70 8.70 36.30 -36.30
- 1.4205 230 80 exp 210 ------- 0 230.1 80.1 1 29 54.00 -54.00 9.00 -9.00
+ 1.4211 53 203 exp 210 ------- 0 53.0 203.0 0 99 0.90 -0.90 45.90 -45.90
- 1.4211 53 203 exp 210 ------- 0 53.0 203.0 0 99 0.90 -0.90 45.90 -45.90
+ 1.4251 97 247 exp 210 ------- 0 97.0 247.0 1 100 14.10 -14.10 59.10 -59.10
r 1.4277 20 170 exp 210 ------- 0 20.0 170.0 0 38 -9.00 9.00 36.00 -36.00
+ 1.4315 272 122 exp 210 ------- 0 272.1 122.1 0 101 66.60 -66.60 21.60 -21.60
- 1.4315 272 122 exp 210 ------- 0 272.1 122.1 0 101 66.60 -66.60 21.60 -21.60
+ 1.4321 80 230 exp 210 ------- 0 80.0 230.0 0 102 9.00 -9.00 54.00 -54.00
- 1.4321 80 230 exp 210 ------- 0 80.0 230.0 0 102 9.00 -9.00 54.00 -54.00
+ 1.4329 78 228 exp 210 ------- 0 78.0 228.0 1 103 8.40 -8.40 53.40 -53.40
- 1.4329 78 228 exp 210 ------- 0 78.0 228.0 1 103 8.40 -8.40 53.40 -53.40
+ 1.4342 150 300 exp 210 ------- 0 150.0 300.0 0 104 30.00 -30.00 75.00 -75.00
- 1.4342 150 300 exp 210 ------- 0 150.0 300.0 0 104 30.00 -30.00 75.00 -75.00
r 1.4435 51 201 exp 210 ------- 0 51.0 201.0 0 40 0.30 -0.30 45.30 -45.30
r 1.4454 78 228 exp 210 ------- 0 78.0 228.0 0 39 8.40 -8.40 53.40 -53.40
+ 1.4455 253 103 exp 210 ------- 0 253.1 103.1 0 105 60.90 -60.90 15.90 -15.90
- 1.4455 253 103 exp 210 ------- 0 253.1 103.1 0 105 60.90 -60.90 15.90 -15.90
r 1.4460 215 65 exp 210 ------- 0 215.1 65.1 0 41 49.50 -49.50 4.50 -4.50
r 1.4512 39 189 exp 210 ------- 0 39.0 189.0 0 42 -3.30 3.30 41.70 -41.70
c 1.4569 231 81 exp 210 ------- 0 231.1 81.1 0 43 54.30 -54.30 9.30 -9.30
+ 1.4601 40 190 exp 210 ------- 0 40.0 190.0 0 106 -3.00 3.00 42.00 -42.00
- 1.4601 40 190 exp 210 ------- 0 40.0 190.0 0 106 -3.00 3.00 42.00 -42.00
+ 1.4605 61 211 exp 210 ------- 0 61.0 211.0 0 107 3.30 -3.30 48.30 -48.30
- 1.4605 61 211 exp 210 ------- 0 61.0 211.0 0 107 3.30 -3.30 48.30 -48.30
+ 1.4616 36 186 exp 210 ------- 0 36.0 186.0 0 108 -4.20 4.20 40.80 -40.80
- 1.4616 36 186 exp 210 ------- 0 36.0 186.0 0 108 -4.20 4.20 40.80 -40.80
r 1.4621 155 5 exp 210 ------- 0 155.1 5.1 0 45 31.50 -31.50 -13.50 13.50
c 1.4664 35 185 exp 210 ------- 0 35.0 185.0 0 46 -4.50 4.50 40.50 -40.50
r 1.4707 245 95 exp 210 ------- 0 245.1 95.1 0 44 58.50 -58.50 13.50 -13.50
r 1.4708 14 164 exp 210 ------- 0 14.0 164.0 0 49 -10.80 10.80 34.20 -34.20
- 1.4733 96 246 exp 210 ------- 0 96.0 246.0 1 93 13.80 -13.80 58.80 -58.80
+ 1.4753 92 242 exp 210 ------- 0 92.0 242.0 1 109 12.60 -12.60 57.60 -57.60
r 1.4778 252 102 exp 210 ------- 0 252.1 102.1 0 47 60.60 -60.60 15.60 -15.60
r 1.4800 202 52 exp 210 ------- 0 202.1 52.1 0 52 45.60 -45.60 0.60 -0.60
c 1.4872 259 109 exp 210 ------- 0 259.1 109.1 0 51 62.70 -62.70 17.70 -17.70
r 1.4883 126 276 exp 210 ------- 0 126.0 276.0 0 50 22.80 -22.80 67.80 -67.80
+ 1.4889 107 257 exp 210 ------- 0 107.0 257.0 1 110 17.10 -17.10 62.10 -62.10
- 1.4889 107 257 exp 210 ------- 0 107.0 257.0 1 110 17.10 -17.10 62.10 -62.10
r 1.4890 96 246 exp 210 ------- 0 96.0 246.0 0 53 13.80 -13.80 58.80 -58.80
c 1.4893 16 166 exp 210 ------- 0 16.0 166.0 0 55 -10.20 10.20 34.80 -34.80
+ 1.4933 173 23 exp 210 ------- 0 173.1 23.1 0 111 36.90 -36.90 -8.10 8.10
- 1.4933 173 23 exp 210 ------- 0 173.1 23.1 0 111 36.90 -36.90 -8.10 8.10
+ 1.4941 275 125 exp 210 ------- 0 275.1 125.1 0 112 67.50 -67.50 22.50 -22.50
- 1.4941 275 125 exp 210 ------- 0 275.1 125.1 0 112 67.50 -67.50 22.50 -22.50
+ 1.4942 288 138 exp 210 ------- 0 288.1 138.1 1 113 71.40 -71.40 26.40 -26.40
c 1.4948 63 213 exp 210 ------- 0 63.0 213.0 0 56 3.90 -3.90 48.90 -48.90
c 1.5057 139 289 exp 210 ------- 0 139.0 289.0 0 54 26.70 -26.70 71.70 -71.70
r 1.5158 6 156 exp 210 ------- 0 6.0 156.0 0 59 -13.20 13.20 31.80 -31.80
+ 1.5163 252 102 exp 210 ------- 0 252.1 102.1 1 114 60.60 -60.60 15.60 -15.60
- 1.5163 252 102 exp 210 ------- 0 252.1 102.1 1 114 60.60 -60.60 15.60 -15.60
+ 1.5172 91 241 exp 210 ------- 0 91.0 241.0 0 115 12.30 -12.30 57.30 -57.30
- 1.5172 91 241 exp 210 ------- 0 91.0 241.0 0 115 12.30 -12.30 57.30 -57.30
c 1.5187 181 31 exp 210 ------- 0 181.1 31.1 0 61 39.30 -39.30 -5.70 5.70
+ 1.5218 67 217 exp 210 ------- 0 67.0 217.0 0 116 5.10 -5.10 50.10 -50.10
- 1.5218 67 217 exp 210 ------- 0 67.0 217.0 0 116 5.10 -5.10 50.10 -50.10
+ 1.5227 271 121 exp 210 ------- 0 271.1 121.1 1 117 66.30 -66.30 21.30 -21.30
+ 1.5261 101 251 exp 210 ------- 0 101.0 251.0 0 118 15.30 -15.30 60.30 -60.30
- 1.5261 101 251 exp 210 ------- 0 101.0 251.0 0 118 15.30 -15.30 60.30 -60.30
c 1.5325 68 218 exp 210 ------- 0 68.0 218.0 0 62 5.40 -5.40 50.40 -50.40
+ 1.5326 119 269 exp 210 ------- 0 119.0 269.0 0 119 20.70 -20.70 65.70 -65.70
- 1.5326 119 269 exp 210 ------- 0 119.0 269.0 0 119 20.70 -20.70 65.70 -65.70
r 1.5338 136 286 exp 210 ------- 0 136.0 286.0 0 60 25.80 -25.80 70.80 -70.80
+ 1.5340 266 116 exp 210 ------- 0 266.1 116.1 1 120 64.80 -64.80 19.80 -19.80
c 1.5360 92 242 exp 210 ------- 0 92.0 242.0 0 63 12.60 -12.60 57.60 -57.60
r 1.5387 77 227 exp 210 ------- 0 77.0 227.0 1 26 8.10 -8.10 53.10 -53.10
+ 1.5408 90 240 exp 210 ------- 0 90.0 240.0 2 121 12.00 -12.00 57.00 -57.00
c 1.5415 166 16 exp 210 ------- 0 166.1 16.1 0 66 34.80 -34.80 -10.20 10.20
r 1.5432 95 245 exp 210 ------- 0 95.0 245.0 0 65 13.50 -13.50 58.50 -58.50
c 1.5436 266 116 exp 210 ------- 0 266.1 116.1 0 64 64.80 -64.80 19.80 -19.80
+ 1.5443 47 197 exp 210 ------- 0 47.0 197.0 0 122 -0.90 0.90 44.10 -44.10
- 1.5443 47 197 exp 210 ------- 0 47.0 197.0 0 122 -0.90 0.90 44.10 -44.10
c 1.5454 160 10 exp 210 ------- 0 160.1 10.1 0 67 33.00 -33.00 -12.00 12.00
+ 1.5459 32 182 exp 210 ------- 0 32.0 182.0 0 123 -5.40 5.40 39.60 -39.60
- 1.5459 32 182 exp 210 ------- 0 32.0 182.0 0 123 -5.40 5.40 39.60 -39.60
c 1.5508 4 154 exp 210 ------- 0 4.0 154.0 0 69 -13.80 13.80 31.20 -31.20
c 1.5545 178 28 exp 210 ------- 0 178.1 28.1 0 71 38.40 -38.40 -6.60 6.60
+ 1.5549 273 123 exp 210 ------- 0 273.1 123.1 0 124 66.90 -66.90 21.90 -21.90
- 1.5549 273 123 exp 210 ------- 0 273.1 123.1 0 124 66.90 -66.90 21.90 -21.90
c 1.5552 239 89 exp 210 ------- 0 239.1 89.1 0 68 56.70 -56.70 11.70 -11.70
c 1.5555 42 192 exp 210 ------- 0 42.0 192.0 0 70 -2.40 2.40 42.60 -42.60
+ 1.5559 172 22 exp 210 ------- 0 172.1 22.1 0 125 36.60 -36.60 -8.40 8.40
- 1.5559 172 22 exp 210 ------- 0 172.1 22.1 0 125 36.60 -36.60 -8.40 8.40
r 1.5633 300 150 exp 210 ------- 0 300.1 150.1 1 14 75.00 -75.00 30.00 -30.00
r 1.5653 224 74 exp 210 ------- 0 224.1 74.1 0 72 52.20 -52.20 7.20 -7.20
r 1.5762 159 9 exp 210 ------- 0 159.1 9.1 0 73 32.70 -32.70 -12.30 12.30
+ 1.5830 31 181 exp 210 ------- 0 31.0 181.0 1 126 -5.70 5.70 39.30 -39.30
r 1.5839 3 153 exp 210 ------- 0 3.0 153.0 0 75 -14.10 14.10 30.90 -30.90
r 1.5875 152 2 exp 210 ------- 0 152.1 2.1 0 78 30.60 -30.60 -14.40 14.40
+ 1.5882 152 2 exp 210 ------- 0 152.1 2.1 1 127 30.60 -30.60 -14.40 14.40
+ 1.5887 81 231 exp 210 ------- 0 81.0 231.0 0 128 9.30 -9.30 54.30 -54.30
- 1.5887 81 231 exp 210 ------- 0 81.0 231.0 0 128 9.30 -9.30 54.30 -54.30
- 1.5893 97 247 exp 210 ------- 0 97.0 247.0 1 100 14.10 -14.10 59.10 -59.10
+ 1.5908 263 113 exp 210 ------- 0 263.1 113.1 0 129 63.90 -63.90 18.90 -18.90
- 1.5908 263 113 exp 210 ------- 0 263.1 113.1 0 129 63.90 -63.90 18.90 -18.90
- 1.5923 152 2 exp 210 ------- 0 152.1 2.1 1 127 30.60 -30.60 -14.40 14.40
+ 1.5996 253 103 exp 210 ------- 0 253.1 103.1 1 130 60.90 -60.90 15.90 -15.90
r 1.6001 187 37 exp 210 ------- 0 187.1 37.1 0 81 41.10 -41.10 -3.90 3.90
+ 1.6009 63 213 exp 210 ------- 0 63.0 213.0 2 131 3.90 -3.90 48.90 -48.90
r 1.6010 274 124 exp 210 ------- 0 274.1 124.1 0 76 67.20 -67.20 22.20 -22.20
+ 1.6025 202 52 exp 210 ------- 0 202.1 52.1 1 132 45.60 -45.60 0.60 -0.60
- 1.6025 202 52 exp 210 ------- 0 202.1 52.1 1 132 45.60 -45.60 0.60 -0.60
+ 1.6030 294 144 exp 210 ------- 0 294.1 144.1 0 133 73.20 -73.20 28.20 -28.20
- 1.6030 294 144 exp 210 ------- 0 294.1 144.1 0 133 73.20 -73.20 28.20 -28.20
c 1.6032 208 58 exp 210 ------- 0 208.1 58.1 0 82 47.40 -47.40 2.40 -2.40
c 1.6046 258 108 exp 210 ------- 0 258.1 108.1 0 79 62.40 -62.40 17.40 -17.40
r 1.6050 97 247 exp 210 ------- 0 97.0 247.0 0 80 14.10 -14.10 59.10 -59.10
r 1.6064 54 204 exp 210 ------- 0 54.0 204.0 0 84 1.20 -1.20 46.20 -46.20
c 1.6095 227 77 exp 210 ------- 0 227.1 77.1 0 85 53.10 -53.10 8.10 -8.10
+ 1.6107 21 171 exp 210 ------- 0 21.0 171.0 1 134 -8.70 8.70 36.30 -36.30
c 1.6107 251 101 exp 210 ------- 0 251.1 101.1 0 83 60.30 -60.30 15.30 -15.30
+ 1.6117 285 135 exp 210 ------- 0 285.1 135.1 0 135 70.50 -70.50 25.50 -25.50
- 1.6117 285 135 exp 210 ------- 0 285.1 135.1 0 135 70.50 -70.50 25.50 -25.50
c 1.6119 30 180 exp 210 ------- 0 30.0 180.0 0 87 -6.00 6.00 39.00 -39.00
+ 1.6134 271 121 exp 210 ------- 0 271.1 121.1 2 136 66.30 -66.30 21.30 -21.30
r 1.6145 219 69 exp 210 ------- 0 219.1 69.1 0 86 50.70 -50.70 5.70 -5.70
+ 1.6153 43 193 exp 210 ------- 0 43.0 193.0 0 137 -2.10 2.10 42.90 -42.90
- 1.6153 43 193 exp 210 ------- 0 43.0 193.0 0 137 -2.10 2.10 42.90 -42.90
+ 1.6201 266 116 exp 210 ------- 0 266.1 116.1 2 138 64.80 -64.80 19.80 -19.80
r 1.6229 203 53 exp 210 ------- 0 203.1 53.1 0 88 45.90 -45.90 0.90 -0.90
- 1.6269 31 181 exp 210 ------- 0 31.0 181.0 1 126 -5.70 5.70 39.30 -39.30
+ 1.6288 73 223 exp 210 ------- 0 73.0 223.0 1 139 6.90 -6.90 51.90 -51.90
+ 1.6337 84 234 exp 210 ------- 0 84.0 234.0 0 140 10.20 -10.20 55.20 -55.20
- 1.6337 84 234 exp 210 ------- 0 84.0 234.0 0 140 10.20 -10.20 55.20 -55.20
+ 1.6362 39 189 exp 210 ------- 0 39.0 189.0 1 141 -3.30 3.30 41.70 -41.70
- 1.6362 39 189 exp 210 ------- 0 39.0 189.0 1 141 -3.30 3.30 41.70 -41.70
r 1.6364 31 181 exp 210 ------- 0 31.0 181.0 0 92 -5.70 5.70 39.30 -39.30
+ 1.6376 248 98 exp 210 ------- 0 248.1 98.1 1 142 59.40 -59.40 14.40 -14.40
r 1.6402 117 267 exp 210 ------- 0 117.0 267.0 0 91 20.10 -20.10 65.10 -65.10
r 1.6406 292 142 exp 210 ------- 0 292.1 142.1 0 90 72.60 -72.60 27.60 -27.60
+ 1.6406 209 59 exp 210 ------- 0 209.1 59.1 0 143 47.70 -47.70 2.70 -2.70
- 1.6406 209 59 exp 210 ------- 0 209.1 59.1 0 143 47.70 -47.70 2.70 -2.70
r 1.6557 17 167 exp 210 ------- 0 17.0 167.0 0 95 -9.90 9.90 35.10 -35.10
+ 1.6585 3 153 exp 210 ------- 0 3.0 153.0 1 144 -14.10 14.10 30.90 -30.90
- 1.6585 3 153 exp 210 ------- 0 3.0 153.0 1 144 -14.10 14.10 30.90 -30.90
+ 1.6613 17 167 exp 210 ------- 0 17.0 167.0 1 145 -9.90 9.90 35.10 -35.10
- 1.6613 17 167 exp 210 ------- 0 17.0 167.0 1 145 -9.90 9.90 35.10 -35.10
+ 1.6705 75 225 exp 210 ------- 0 75.0 225.0 1 146 7.50 -7.50 52.50 -52.50
- 1.6705 75 225 exp 210 ------- 0 75.0 225.0 1 146 7.50 -7.50 52.50 -52.50
+ 1.6721 5 155 exp 210 ------- 0 5.0 155.0 0 147 -13.50 13.50 31.50 -31.50
- 1.6721 5 155 exp 210 ------- 0 5.0 155.0 0 147 -13.50 13.50 31.50 -31.50
r 1.6730 53 203 exp 210 ------- 0 53.0 203.0 0 99 0.90 -0.90 45.90 -45.90
c 1.6753 230 80 exp 210 ------- 0 230.1 80.1 1 29 54.00 -54.00 9.00 -9.00
c 1.6761 246 96 exp 210 ------- 0 246.1 96.1 1 94 58.80 -58.80 13.80 -13.80
+ 1.6763 70 220 exp 210 ------- 0 70.0 220.0 0 148 6.00 -6.00 51.00 -51.00
- 1.6763 70 220 exp 210 ------- 0 70.0 220.0 0 148 6.00 -6.00 51.00 -51.00
+ 1.6791 290 140 exp 210 ------- 0 290.1 140.1 0 149 72.00 -72.00 27.00 -27.00
- 1.6791 290 140 exp 210 ------- 0 290.1 140.1 0 149 72.00 -72.00 27.00 -27.00
+ 1.6801 206 56 exp 210 ------- 0 206.1 56.1 0 150 46.80 -46.80 1.80 -1.80
- 1.6801 206 56 exp 210 ------- 0 206.1 56.1 0 150 46.80 -46.80 1.80 -1.80
r 1.6817 271 121 exp 210 ------- 0 271.1 121.1 0 97 66.30 -66.30 21.30 -21.30
c 1.6839 288 138 exp 210 ------- 0 288.1 138.1 0 98 71.40 -71.40 26.40 -26.40
c 1.6874 78 228 exp 210 ------- 0 78.0 228.0 1 103 8.40 -8.40 53.40 -53.40
c 1.6876 80 230 exp 210 ------- 0 80.0 230.0 0 102 9.00 -9.00 54.00 -54.00
+ 1.6892 113 263 exp 210 ------- 0 113.0 263.0 0 151 18.90 -18.90 63.90 -63.90
- 1.6892 113 263 exp 210 ------- 0 113.0 263.0 0 151 18.90 -18.90 63.90 -63.90
r 1.6940 272 122 exp 210 ------- 0 272.1 122.1 0 101 66.60 -66.60 21.60 -21.60
- 1.6978 271 121 exp 210 ------- 0 271.1 121.1 1 117 66.30 -66.30 21.30 -21.30
c 1.7005 150 300 exp 210 ------- 0 150.0 300.0 0 104 30.00 -30.00 75.00 -75.00
+ 1.7008 270 120 exp 210 ------- 0 270.1 120.1 0 152 66.00 -66.00 21.00 -21.00
- 1.7008 270 120 exp 210 ------- 0 270.1 120.1 0 152 66.00 -66.00 21.00 -21.00
r 1.7048 253 103 exp 210 ------- 0 253.1 103.1 0 105 60.90 -60.90 15.90 -15.90
c 1.7101 40 190 exp 210 ------- 0 40.0 190.0 0 106 -3.00 3.00 42.00 -42.00
+ 1.7107 268 118 exp 210 ------- 0 268.1 118.1 0 153 65.40 -65.40 20.40 -20.40
- 1.7107 268 118 exp 210 ------- 0 268.1 118.1 0 153 65.40 -65.40 20.40 -20.40
r 1.7117 36 186 exp 210 ------- 0 36.0 186.0 0 108 -4.20 4.20 40.80 -40.80
c 1.7126 61 211 exp 210 ------- 0 61.0 211.0 0 107 3.30 -3.30 48.30 -48.30
+ 1.7159 294 144 exp 210 ------- 0 294.1 144.1 1 154 73.20 -73.20 28.20 -28.20
+ 1.7172 97 247 exp 210 ------- 0 97.0 247.0 2 155 14.10 -14.10 59.10 -59.10
- 1.7207 253 103 exp 210 ------- 0 253.1 103.1 1 130 60.90 -60.90 15.90 -15.90
+ 1.7218 282 132 exp 210 ------- 0 282.1 132.1 0 156 69.60 -69.60 24.60 -24.60
- 1.7218 282 132 exp 210 ------- 0 282.1 132.1 0 156 69.60 -69.60 24.60 -24.60
+ 1.7247 280 130 exp 210 ------- 0 280.1 130.1 0 157 69.00 -69.00 24.00 -24.00
- 1.7247 280 130 exp 210 ------- 0 280.1 130.1 0 157 69.00 -69.00 24.00 -24.00