+ 1.0003 329 4 exp 210 ------- 0 329.1 4.1 0 0 17.90 -17.90 -14.60 14.60
- 1.0003 329 4 exp 210 ------- 0 329.1 4.1 0 0 17.90 -17.90 -14.60 14.60
+ 1.0017 176 501 exp 210 ------- 0 176.0 501.0 0 1 2.60 -2.60 35.10 -35.10
- 1.0017 176 501 exp 210 ------- 0 176.0 501.0 0 1 2.60 -2.60 35.10 -35.10
+ 1.0023 546 221 exp 210 ------- 0 546.1 221.1 0 2 39.60 -39.60 7.10 -7.10
- 1.0023 546 221 exp 210 ------- 0 546.1 221.1 0 2 39.60 -39.60 7.10 -7.10
+ 1.0047 300 625 exp 210 ------- 0 300.0 625.0 0 3 15.00 -15.00 47.50 -47.50
- 1.0047 300 625 exp 210 ------- 0 300.0 625.0 0 3 15.00 -15.00 47.50 -47.50
+ 1.0066 107 432 exp 210 ------- 0 107.0 432.0 0 4 -4.30 4.30 28.20 -28.20
- 1.0066 107 432 exp 210 ------- 0 107.0 432.0 0 4 -4.30 4.30 28.20 -28.20
+ 1.0067 186 511 exp 210 ------- 0 186.0 511.0 0 5 3.60 -3.60 36.10 -36.10
- 1.0067 186 511 exp 210 ------- 0 186.0 511.0 0 5 3.60 -3.60 36.10 -36.10
+ 1.0067 582 257 exp 210 ------- 0 582.1 257.1 0 6 43.20 -43.20 10.70 -10.70
- 1.0067 582 257 exp 210 ------- 0 582.1 257.1 0 6 43.20 -43.20 10.70 -10.70
+ 1.0071 151 476 exp 210 ------- 0 151.0 476.0 0 7 0.10 -0.10 32.60 -32.60
- 1.0071 151 476 exp 210 ------- 0 151.0 476.0 0 7 0.10 -0.10 32.60 -32.60
+ 1.0072 295 620 exp 210 ------- 0 295.0 620.0 0 8 14.50 -14.50 47.00 -47.00
- 1.0072 295 620 exp 210 ------- 0 295.0 620.0 0 8 14.50 -14.50 47.00 -47.00
+ 1.0079 633 308 exp 210 ------- 0 633.1 308.1 0 9 48.30 -48.30 15.80 -15.80
- 1.0079 633 308 exp 210 ------- 0 633.1 308.1 0 9 48.30 -48.30 15.80 -15.80
+ 1.0079 549 224 exp 210 ------- 0 549.1 224.1 0 10 39.90 -39.90 7.40 -7.40
- 1.0079 549 224 exp 210 ------- 0 549.1 224.1 0 10 39.90 -39.90 7.40 -7.40
+ 1.0089 310 635 exp 210 ------- 0 310.0 635.0 0 11 16.00 -16.00 48.50 -48.50
- 1.0089 310 635 exp 210 ------- 0 310.0 635.0 0 11 16.00 -16.00 48.50 -48.50
+ 1.0099 618 293 exp 210 ------- 0 618.1 293.1 0 12 46.80 -46.80 14.30 -14.30
- 1.0099 618 293 exp 210 ------- 0 618.1 293.1 0 12 46.80 -46.80 14.30 -14.30
+ 1.0121 468 143 exp 210 ------- 0 468.1 143.1 0 13 31.80 -31.80 -0.70 0.70
- 1.0121 468 143 exp 210 ------- 0 468.1 143.1 0 13 31.80 -31.80 -0.70 0.70
+ 1.0123 33 358 exp 210 ------- 0 33.0 358.0 0 14 -11.70 11.70 20.80 -20.80
- 1.0123 33 358 exp 210 ------- 0 33.0 358.0 0 14 -11.70 11.70 20.80 -20.80
+ 1.0138 248 573 exp 210 ------- 0 248.0 573.0 0 15 9.80 -9.80 42.30 -42.30
- 1.0138 248 573 exp 210 ------- 0 248.0 573.0 0 15 9.80 -9.80 42.30 -42.30
+ 1.0143 539 214 exp 210 ------- 0 539.1 214.1 0 16 38.90 -38.90 6.40 -6.40
- 1.0143 539 214 exp 210 ------- 0 539.1 214.1 0 16 38.90 -38.90 6.40 -6.40
+ 1.0145 77 402 exp 210 ------- 0 77.0 402.0 0 17 -7.30 7.30 25.20 -25.20
- 1.0145 77 402 exp 210 ------- 0 77.0 402.0 0 17 -7.30 7.30 25.20 -25.20
+ 1.0148 222 547 exp 210 ------- 0 222.0 547.0 0 18 7.20 -7.20 39.70 -39.70
- 1.0148 222 547 exp 210 ------- 0 222.0 547.0 0 18 7.20 -7.20 39.70 -39.70
+ 1.0156 107 432 exp 210 ------- 0 107.0 432.0 1 19 -4.30 4.30 28.20 -28.20
+ 1.0186 344 19 exp 210 ------- 0 344.1 19.1 0 20 19.40 -19.40 -13.10 13.10
- 1.0186 344 19 exp 210 ------- 0 344.1 19.1 0 20 19.40 -19.40 -13.10 13.10
+ 1.0202 495 170 exp 210 ------- 0 495.1 170.1 0 21 34.50 -34.50 2.00 -2.00
- 1.0202 495 170 exp 210 ------- 0 495.1 170.1 0 21 34.50 -34.50 2.00 -2.00
+ 1.0209 603 278 exp 210 ------- 0 603.1 278.1 0 22 45.30 -45.30 12.80 -12.80
- 1.0209 603 278 exp 210 ------- 0 603.1 278.1 0 22 45.30 -45.30 12.80 -12.80
+ 1.0212 552 227 exp 210 ------- 0 552.1 227.1 0 23 40.20 -40.20 7.70 -7.70
- 1.0212 552 227 exp 210 ------- 0 552.1 227.1 0 23 40.20 -40.20 7.70 -7.70
+ 1.0218 165 490 exp 210 ------- 0 165.0 490.0 0 24 1.50 -1.50 34.00 -34.00
- 1.0218 165 490 exp 210 ------- 0 165.0 490.0 0 24 1.50 -1.50 34.00 -34.00
+ 1.0223 302 627 exp 210 ------- 0 302.0 627.0 0 25 15.20 -15.20 47.70 -47.70
- 1.0223 302 627 exp 210 ------- 0 302.0 627.0 0 25 15.20 -15.20 47.70 -47.70
+ 1.0230 576 251 exp 210 ------- 0 576.1 251.1 0 26 42.60 -42.60 10.10 -10.10
- 1.0230 576 251 exp 210 ------- 0 576.1 251.1 0 26 42.60 -42.60 10.10 -10.10
+ 1.0238 90 415 exp 210 ------- 0 90.0 415.0 0 27 -6.00 6.00 26.50 -26.50
- 1.0238 90 415 exp 210 ------- 0 90.0 415.0 0 27 -6.00 6.00 26.50 -26.50
+ 1.0239 298 623 exp 210 ------- 0 298.0 623.0 0 28 14.80 -14.80 47.30 -47.30
- 1.0239 298 623 exp 210 ------- 0 298.0 623.0 0 28 14.80 -14.80 47.30 -47.30
+ 1.0248 599 274 exp 210 ------- 0 599.1 274.1 0 29 44.90 -44.90 12.40 -12.40
- 1.0248 599 274 exp 210 ------- 0 599.1 274.1 0 29 44.90 -44.90 12.40 -12.40
+ 1.0251 406 81 exp 210 ------- 0 406.1 81.1 0 30 25.60 -25.60 -6.90 6.90
- 1.0251 406 81 exp 210 ------- 0 406.1 81.1 0 30 25.60 -25.60 -6.90 6.90
+ 1.0284 75 400 exp 210 ------- 0 75.0 400.0 0 31 -7.50 7.50 25.00 -25.00
- 1.0284 75 400 exp 210 ------- 0 75.0 400.0 0 31 -7.50 7.50 25.00 -25.00
+ 1.0311 72 397 exp 210 ------- 0 72.0 397.0 0 32 -7.80 7.80 24.70 -24.70
- 1.0311 72 397 exp 210 ------- 0 72.0 397.0 0 32 -7.80 7.80 24.70 -24.70
+ 1.0318 296 621 exp 210 ------- 0 296.0 621.0 0 33 14.60 -14.60 47.10 -47.10
- 1.0318 296 621 exp 210 ------- 0 296.0 621.0 0 33 14.60 -14.60 47.10 -47.10
+ 1.0329 595 270 exp 210 ------- 0 595.1 270.1 0 34 44.50 -44.50 12.00 -12.00
- 1.0329 595 270 exp 210 ------- 0 595.1 270.1 0 34 44.50 -44.50 12.00 -12.00
+ 1.0343 309 634 exp 210 ------- 0 309.0 634.0 0 35 15.90 -15.90 48.40 -48.40
- 1.0343 309 634 exp 210 ------- 0 309.0 634.0 0 35 15.90 -15.90 48.40 -48.40
+ 1.0346 405 80 exp 210 ------- 0 405.1 80.1 0 36 25.50 -25.50 -7.00 7.00
- 1.0346 405 80 exp 210 ------- 0 405.1 80.1 0 36 25.50 -25.50 -7.00 7.00
+ 1.0350 352 27 exp 210 ------- 0 352.1 27.1 0 37 20.20 -20.20 -12.30 12.30
- 1.0350 352 27 exp 210 ------- 0 352.1 27.1 0 37 20.20 -20.20 -12.30 12.30
+ 1.0354 574 249 exp 210 ------- 0 574.1 249.1 0 38 42.40 -42.40 9.90 -9.90
- 1.0354 574 249 exp 210 ------- 0 574.1 249.1 0 38 42.40 -42.40 9.90 -9.90
+ 1.0368 492 167 exp 210 ------- 0 492.1 167.1 0 39 34.20 -34.20 1.70 -1.70
- 1.0368 492 167 exp 210 ------- 0 492.1 167.1 0 39 34.20 -34.20 1.70 -1.70
+ 1.0378 453 128 exp 210 ------- 0 453.1 128.1 0 40 30.30 -30.30 -2.20 2.20
- 1.0378 453 128 exp 210 ------- 0 453.1 128.1 0 40 30.30 -30.30 -2.20 2.20
+ 1.0381 269 594 exp 210 ------- 0 269.0 594.0 0 41 11.90 -11.90 44.40 -44.40
- 1.0381 269 594 exp 210 ------- 0 269.0 594.0 0 41 11.90 -11.90 44.40 -44.40
+ 1.0388 72 397 exp 210 ------- 0 72.0 397.0 1 42 -7.80 7.80 24.70 -24.70
+ 1.0401 369 44 exp 210 ------- 0 369.1 44.1 0 43 21.90 -21.90 -10.60 10.60
- 1.0401 369 44 exp 210 ------- 0 369.1 44.1 0 43 21.90 -21.90 -10.60 10.60
+ 1.0402 189 514 exp 210 ------- 0 189.0 514.0 0 44 3.90 -3.90 36.40 -36.40
- 1.0402 189 514 exp 210 ------- 0 189.0 514.0 0 44 3.90 -3.90 36.40 -36.40
+ 1.0404 148 473 exp 210 ------- 0 148.0 473.0 0 45 -0.20 0.20 32.30 -32.30
- 1.0404 148 473 exp 210 ------- 0 148.0 473.0 0 45 -0.20 0.20 32.30 -32.30
+ 1.0409 406 81 exp 210 ------- 0 406.1 81.1 1 46 25.60 -25.60 -6.90 6.90
+ 1.0411 261 586 exp 210 ------- 0 261.0 586.0 0 47 11.10 -11.10 43.60 -43.60
- 1.0411 261 586 exp 210 ------- 0 261.0 586.0 0 47 11.10 -11.10 43.60 -43.60
+ 1.0414 322 647 exp 210 ------- 0 322.0 647.0 0 48 17.20 -17.20 49.70 -49.70
- 1.0414 322 647 exp 210 ------- 0 322.0 647.0 0 48 17.20 -17.20 49.70 -49.70
+ 1.0420 240 565 exp 210 ------- 0 240.0 565.0 0 49 9.00 -9.00 41.50 -41.50
- 1.0420 240 565 exp 210 ------- 0 240.0 565.0 0 49 9.00 -9.00 41.50 -41.50
+ 1.0431 357 32 exp 210 ------- 0 357.1 32.1 0 50 20.70 -20.70 -11.80 11.80
- 1.0431 357 32 exp 210 ------- 0 357.1 32.1 0 50 20.70 -20.70 -11.80 11.80
+ 1.0436 381 56 exp 210 ------- 0 381.1 56.1 0 51 23.10 -23.10 -9.40 9.40
- 1.0436 381 56 exp 210 ------- 0 381.1 56.1 0 51 23.10 -23.10 -9.40 9.40
+ 1.0437 536 211 exp 210 ------- 0 536.1 211.1 0 52 38.60 -38.60 6.10 -6.10
- 1.0437 536 211 exp 210 ------- 0 536.1 211.1 0 52 38.60 -38.60 6.10 -6.10
+ 1.0456 559 234 exp 210 ------- 0 559.1 234.1 0 53 40.90 -40.90 8.40 -8.40
- 1.0456 559 234 exp 210 ------- 0 559.1 234.1 0 53 40.90 -40.90 8.40 -8.40
+ 1.0458 487 162 exp 210 ------- 0 487.1 162.1 0 54 33.70 -33.70 1.20 -1.20
- 1.0458 487 162 exp 210 ------- 0 487.1 162.1 0 54 33.70 -33.70 1.20 -1.20
+ 1.0462 212 537 exp 210 ------- 0 212.0 537.0 0 55 6.20 -6.20 38.70 -38.70
- 1.0462 212 537 exp 210 ------- 0 212.0 537.0 0 55 6.20 -6.20 38.70 -38.70
+ 1.0466 517 192 exp 210 ------- 0 517.1 192.1 0 56 36.70 -36.70 4.20 -4.20
- 1.0466 517 192 exp 210 ------- 0 517.1 192.1 0 56 36.70 -36.70 4.20 -4.20
+ 1.0466 77 402 exp 210 ------- 0 77.0 402.0 1 57 -7.30 7.30 25.20 -25.20
+ 1.0476 211 536 exp 210 ------- 0 211.0 536.0 0 58 6.10 -6.10 38.60 -38.60
- 1.0476 211 536 exp 210 ------- 0 211.0 536.0 0 58 6.10 -6.10 38.60 -38.60
+ 1.0482 246 571 exp 210 ------- 0 246.0 571.0 0 59 9.60 -9.60 42.10 -42.10
- 1.0482 246 571 exp 210 ------- 0 246.0 571.0 0 59 9.60 -9.60 42.10 -42.10
+ 1.0497 74 399 exp 210 ------- 0 74.0 399.0 0 60 -7.60 7.60 24.90 -24.90
- 1.0497 74 399 exp 210 ------- 0 74.0 399.0 0 60 -7.60 7.60 24.90 -24.90
+ 1.0502 230 555 exp 210 ------- 0 230.0 555.0 0 61 8.00 -8.00 40.50 -40.50
- 1.0502 230 555 exp 210 ------- 0 230.0 555.0 0 61 8.00 -8.00 40.50 -40.50
+ 1.0508 446 121 exp 210 ------- 0 446.1 121.1 0 62 29.60 -29.60 -2.90 2.90
- 1.0508 446 121 exp 210 ------- 0 446.1 121.1 0 62 29.60 -29.60 -2.90 2.90
+ 1.0510 154 479 exp 210 ------- 0 154.0 479.0 0 63 0.40 -0.40 32.90 -32.90
- 1.0510 154 479 exp 210 ------- 0 154.0 479.0 0 63 0.40 -0.40 32.90 -32.90
+ 1.0510 459 134 exp 210 ------- 0 459.1 134.1 0 64 30.90 -30.90 -1.60 1.60
- 1.0510 459 134 exp 210 ------- 0 459.1 134.1 0 64 30.90 -30.90 -1.60 1.60
+ 1.0513 38 363 exp 210 ------- 0 38.0 363.0 0 65 -11.20 11.20 21.30 -21.30
- 1.0513 38 363 exp 210 ------- 0 38.0 363.0 0 65 -11.20 11.20 21.30 -21.30
+ 1.0513 127 452 exp 210 ------- 0 127.0 452.0 0 66 -2.30 2.30 30.20 -30.20
- 1.0513 127 452 exp 210 ------- 0 127.0 452.0 0 66 -2.30 2.30 30.20 -30.20
+ 1.0518 512 187 exp 210 ------- 0 512.1 187.1 0 67 36.20 -36.20 3.70 -3.70
- 1.0518 512 187 exp 210 ------- 0 512.1 187.1 0 67 36.20 -36.20 3.70 -3.70
+ 1.0520 479 154 exp 210 ------- 0 479.1 154.1 0 68 32.90 -32.90 0.40 -0.40
- 1.0520 479 154 exp 210 ------- 0 479.1 154.1 0 68 32.90 -32.90 0.40 -0.40
+ 1.0520 73 398 exp 210 ------- 0 73.0 398.0 0 69 -7.70 7.70 24.80 -24.80
- 1.0520 73 398 exp 210 ------- 0 73.0 398.0 0 69 -7.70 7.70 24.80 -24.80
+ 1.0526 311 636 exp 210 ------- 0 311.0 636.0 0 70 16.10 -16.10 48.60 -48.60
- 1.0526 311 636 exp 210 ------- 0 311.0 636.0 0 70 16.10 -16.10 48.60 -48.60
+ 1.0533 165 490 exp 210 ------- 0 165.0 490.0 1 71 1.50 -1.50 34.00 -34.00
+ 1.0533 214 539 exp 210 ------- 0 214.0 539.0 0 72 6.40 -6.40 38.90 -38.90
- 1.0533 214 539 exp 210 ------- 0 214.0 539.0 0 72 6.40 -6.40 38.90 -38.90
+ 1.0538 105 430 exp 210 ------- 0 105.0 430.0 0 73 -4.50 4.50 28.00 -28.00
- 1.0538 105 430 exp 210 ------- 0 105.0 430.0 0 73 -4.50 4.50 28.00 -28.00
+ 1.0546 62 387 exp 210 ------- 0 62.0 387.0 0 74 -8.80 8.80 23.70 -23.70
- 1.0546 62 387 exp 210 ------- 0 62.0 387.0 0 74 -8.80 8.80 23.70 -23.70
+ 1.0548 489 164 exp 210 ------- 0 489.1 164.1 0 75 33.90 -33.90 1.40 -1.40
- 1.0548 489 164 exp 210 ------- 0 489.1 164.1 0 75 33.90 -33.90 1.40 -1.40
+ 1.0561 354 29 exp 210 ------- 0 354.1 29.1 0 76 20.40 -20.40 -12.10 12.10
- 1.0561 354 29 exp 210 ------- 0 354.1 29.1 0 76 20.40 -20.40 -12.10 12.10
+ 1.0570 456 131 exp 210 ------- 0 456.1 131.1 0 77 30.60 -30.60 -1.90 1.90
- 1.0570 456 131 exp 210 ------- 0 456.1 131.1 0 77 30.60 -30.60 -1.90 1.90
+ 1.0577 21 346 exp 210 ------- 0 21.0 346.0 0 78 -12.90 12.90 19.60 -19.60
- 1.0577 21 346 exp 210 ------- 0 21.0 346.0 0 78 -12.90 12.90 19.60 -19.60
+ 1.0586 601 276 exp 210 ------- 0 601.1 276.1 0 79 45.10 -45.10 12.60 -12.60
- 1.0586 601 276 exp 210 ------- 0 601.1 276.1 0 79 45.10 -45.10 12.60 -12.60
+ 1.0599 20 345 exp 210 ------- 0 20.0 345.0 0 80 -13.00 13.00 19.50 -19.50
- 1.0599 20 345 exp 210 ------- 0 20.0 345.0 0 80 -13.00 13.00 19.50 -19.50
+ 1.0601 240 565 exp 210 ------- 0 240.0 565.0 1 81 9.00 -9.00 41.50 -41.50
+ 1.0603 295 620 exp 210 ------- 0 295.0 620.0 1 82 14.50 -14.50 47.00 -47.00
+ 1.0606 648 323 exp 210 ------- 0 648.1 323.1 0 83 49.80 -49.80 17.30 -17.30
- 1.0606 648 323 exp 210 ------- 0 648.1 323.1 0 83 49.80 -49.80 17.30 -17.30
+ 1.0607 451 126 exp 210 ------- 0 451.1 126.1 0 84 30.10 -30.10 -2.40 2.40
- 1.0607 451 126 exp 210 ------- 0 451.1 126.1 0 84 30.10 -30.10 -2.40 2.40
+ 1.0635 78 403 exp 210 ------- 0 78.0 403.0 0 85 -7.20 7.20 25.30 -25.30
- 1.0635 78 403 exp 210 ------- 0 78.0 403.0 0 85 -7.20 7.20 25.30 -25.30
+ 1.0641 51 376 exp 210 ------- 0 51.0 376.0 0 86 -9.90 9.90 22.60 -22.60
- 1.0641 51 376 exp 210 ------- 0 51.0 376.0 0 86 -9.90 9.90 22.60 -22.60
+ 1.0641 580 255 exp 210 ------- 0 580.1 255.1 0 87 43.00 -43.00 10.50 -10.50
- 1.0641 580 255 exp 210 ------- 0 580.1 255.1 0 87 43.00 -43.00 10.50 -10.50
+ 1.0643 215 540 exp 210 ------- 0 215.0 540.0 0 88 6.50 -6.50 39.00 -39.00
- 1.0643 215 540 exp 210 ------- 0 215.0 540.0 0 88 6.50 -6.50 39.00 -39.00
+ 1.0645 527 202 exp 210 ------- 0 527.1 202.1 0 89 37.70 -37.70 5.20 -5.20
- 1.0645 527 202 exp 210 ------- 0 527.1 202.1 0 89 37.70 -37.70 5.20 -5.20
+ 1.0649 322 647 exp 210 ------- 0 322.0 647.0 1 90 17.20 -17.20 49.70 -49.70
+ 1.0655 364 39 exp 210 ------- 0 364.1 39.1 0 91 21.40 -21.40 -11.10 11.10
- 1.0655 364 39 exp 210 ------- 0 364.1 39.1 0 91 21.40 -21.40 -11.10 11.10
+ 1.0656 398 73 exp 210 ------- 0 398.1 73.1 0 92 24.80 -24.80 -7.70 7.70
- 1.0656 398 73 exp 210 ------- 0 398.1 73.1 0 92 24.80 -24.80 -7.70 7.70
+ 1.0671 39 364 exp 210 ------- 0 39.0 364.0 0 93 -11.10 11.10 21.40 -21.40
- 1.0671 39 364 exp 210 ------- 0 39.0 364.0 0 93 -11.10 11.10 21.40 -21.40
+ 1.0673 231 556 exp 210 ------- 0 231.0 556.0 0 94 8.10 -8.10 40.60 -40.60
- 1.0673 231 556 exp 210 ------- 0 231.0 556.0 0 94 8.10 -8.10 40.60 -40.60
+ 1.0676 452 127 exp 210 ------- 0 452.1 127.1 0 95 30.20 -30.20 -2.30 2.30
- 1.0676 452 127 exp 210 ------- 0 452.1 127.1 0 95 30.20 -30.20 -2.30 2.30
+ 1.0711 245 570 exp 210 ------- 0 245.0 570.0 0 96 9.50 -9.50 42.00 -42.00
- 1.0711 245 570 exp 210 ------- 0 245.0 570.0 0 96 9.50 -9.50 42.00 -42.00
+ 1.0716 155 480 exp 210 ------- 0 155.0 480.0 0 97 0.50 -0.50 33.00 -33.00
- 1.0716 155 480 exp 210 ------- 0 155.0 480.0 0 97 0.50 -0.50 33.00 -33.00
+ 1.0726 35 360 exp 210 ------- 0 35.0 360.0 0 98 -11.50 11.50 21.00 -21.00
- 1.0726 35 360 exp 210 ------- 0 35.0 360.0 0 98 -11.50 11.50 21.00 -21.00
+ 1.0727 589 264 exp 210 ------- 0 589.1 264.1 0 99 43.90 -43.90 11.40 -11.40
- 1.0727 589 264 exp 210 ------- 0 589.1 264.1 0 99 43.90 -43.90 11.40 -11.40
+ 1.0730 635 310 exp 210 ------- 0 635.1 310.1 0 100 48.50 -48.50 16.00 -16.00
- 1.0730 635 310 exp 210 ------- 0 635.1 310.1 0 100 48.50 -48.50 16.00 -16.00
+ 1.0731 252 577 exp 210 ------- 0 252.0 577.0 0 101 10.20 -10.20 42.70 -42.70
- 1.0731 252 577 exp 210 ------- 0 252.0 577.0 0 101 10.20 -10.20 42.70 -42.70
+ 1.0734 386 61 exp 210 ------- 0 386.1 61.1 0 102 23.60 -23.60 -8.90 8.90
- 1.0734 386 61 exp 210 ------- 0 386.1 61.1 0 102 23.60 -23.60 -8.90 8.90
+ 1.0744 14 339 exp 210 ------- 0 14.0 339.0 0 103 -13.60 13.60 18.90 -18.90
- 1.0744 14 339 exp 210 ------- 0 14.0 339.0 0 103 -13.60 13.60 18.90 -18.90
+ 1.0752 126 451 exp 210 ------- 0 126.0 451.0 0 104 -2.40 2.40 30.10 -30.10
- 1.0752 126 451 exp 210 ------- 0 126.0 451.0 0 104 -2.40 2.40 30.10 -30.10
+ 1.0753 541 216 exp 210 ------- 0 541.1 216.1 0 105 39.10 -39.10 6.60 -6.60
- 1.0753 541 216 exp 210 ------- 0 541.1 216.1 0 105 39.10 -39.10 6.60 -6.60
+ 1.0761 259 584 exp 210 ------- 0 259.0 584.0 0 106 10.90 -10.90 43.40 -43.40
- 1.0761 259 584 exp 210 ------- 0 259.0 584.0 0 106 10.90 -10.90 43.40 -43.40
+ 1.0762 202 527 exp 210 ------- 0 202.0 527.0 0 107 5.20 -5.20 37.70 -37.70
- 1.0762 202 527 exp 210 ------- 0 202.0 527.0 0 107 5.20 -5.20 37.70 -37.70
+ 1.0771 96 421 exp 210 ------- 0 96.0 421.0 0 108 -5.40 5.40 27.10 -27.10
- 1.0771 96 421 exp 210 ------- 0 96.0 421.0 0 108 -5.40 5.40 27.10 -27.10
+ 1.0774 574 249 exp 210 ------- 0 574.1 249.1 1 109 42.40 -42.40 9.90 -9.90
+ 1.0780 329 4 exp 210 ------- 0 329.1 4.1 1 110 17.90 -17.90 -14.60 14.60
+ 1.0803 139 464 exp 210 ------- 0 139.0 464.0 0 111 -1.10 1.10 31.40 -31.40
- 1.0803 139 464 exp 210 ------- 0 139.0 464.0 0 111 -1.10 1.10 31.40 -31.40
+ 1.0808 16 341 exp 210 ------- 0 16.0 341.0 0 112 -13.40 13.40 19.10 -19.10
- 1.0808 16 341 exp 210 ------- 0 16.0 341.0 0 112 -13.40 13.40 19.10 -19.10
+ 1.0808 421 96 exp 210 ------- 0 421.1 96.1 0 113 27.10 -27.10 -5.40 5.40
- 1.0808 421 96 exp 210 ------- 0 421.1 96.1 0 113 27.10 -27.10 -5.40 5.40
+ 1.0810 63 388 exp 210 ------- 0 63.0 388.0 0 114 -8.70 8.70 23.80 -23.80
- 1.0810 63 388 exp 210 ------- 0 63.0 388.0 0 114 -8.70 8.70 23.80 -23.80
+ 1.0811 340 15 exp 210 ------- 0 340.1 15.1 0 115 19.00 -19.00 -13.50 13.50
- 1.0811 340 15 exp 210 ------- 0 340.1 15.1 0 115 19.00 -19.00 -13.50 13.50
+ 1.0825 563 238 exp 210 ------- 0 563.1 238.1 0 116 41.30 -41.30 8.80 -8.80
- 1.0825 563 238 exp 210 ------- 0 563.1 238.1 0 116 41.30 -41.30 8.80 -8.80
+ 1.0826 477 152 exp 210 ------- 0 477.1 152.1 0 117 32.70 -32.70 0.20 -0.20
- 1.0826 477 152 exp 210 ------- 0 477.1 152.1 0 117 32.70 -32.70 0.20 -0.20
+ 1.0834 608 283 exp 210 ------- 0 608.1 283.1 0 118 45.80 -45.80 13.30 -13.30
- 1.0834 608 283 exp 210 ------- 0 608.1 283.1 0 118 45.80 -45.80 13.30 -13.30
+ 1.0839 365 40 exp 210 ------- 0 365.1 40.1 0 119 21.50 -21.50 -11.00 11.00
- 1.0839 365 40 exp 210 ------- 0 365.1 40.1 0 119 21.50 -21.50 -11.00 11.00
+ 1.0848 402 77 exp 210 ------- 0 402.1 77.1 0 120 25.20 -25.20 -7.30 7.30
- 1.0848 402 77 exp 210 ------- 0 402.1 77.1 0 120 25.20 -25.20 -7.30 7.30
+ 1.0853 326 1 exp 210 ------- 0 326.1 1.1 0 121 17.60 -17.60 -14.90 14.90
- 1.0853 326 1 exp 210 ------- 0 326.1 1.1 0 121 17.60 -17.60 -14.90 14.90
+ 1.0865 569 244 exp 210 ------- 0 569.1 244.1 0 122 41.90 -41.90 9.40 -9.40
- 1.0865 569 244 exp 210 ------- 0 569.1 244.1 0 122 41.90 -41.90 9.40 -9.40
+ 1.0870 466 141 exp 210 ------- 0 466.1 141.1 0 123 31.60 -31.60 -0.90 0.90
- 1.0870 466 141 exp 210 ------- 0 466.1 141.1 0 123 31.60 -31.60 -0.90 0.90
+ 1.0875 620 295 exp 210 ------- 0 620.1 295.1 0 124 47.00 -47.00 14.50 -14.50
- 1.0875 620 295 exp 210 ------- 0 620.1 295.1 0 124 47.00 -47.00 14.50 -14.50
+ 1.0895 6 331 exp 210 ------- 0 6.0 331.0 0 125 -14.40 14.40 18.10 -18.10
- 1.0895 6 331 exp 210 ------- 0 6.0 331.0 0 125 -14.40 14.40 18.10 -18.10
+ 1.0898 313 638 exp 210 ------- 0 313.0 638.0 0 126 16.30 -16.30 48.80 -48.80
- 1.0898 313 638 exp 210 ------- 0 313.0 638.0 0 126 16.30 -16.30 48.80 -48.80
+ 1.0898 136 461 exp 210 ------- 0 136.0 461.0 0 127 -1.40 1.40 31.10 -31.10
- 1.0898 136 461 exp 210 ------- 0 136.0 461.0 0 127 -1.40 1.40 31.10 -31.10
+ 1.0902 181 506 exp 210 ------- 0 181.0 506.0 0 128 3.10 -3.10 35.60 -35.60
- 1.0902 181 506 exp 210 ------- 0 181.0 506.0 0 128 3.10 -3.10 35.60 -35.60
+ 1.0908 259 584 exp 210 ------- 0 259.0 584.0 1 129 10.90 -10.90 43.40 -43.40
+ 1.0919 507 182 exp 210 ------- 0 507.1 182.1 0 130 35.70 -35.70 3.20 -3.20
- 1.0919 507 182 exp 210 ------- 0 507.1 182.1 0 130 35.70 -35.70 3.20 -3.20
+ 1.0926 617 292 exp 210 ------- 0 617.1 292.1 0 131 46.70 -46.70 14.20 -14.20
- 1.0926 617 292 exp 210 ------- 0 617.1 292.1 0 131 46.70 -46.70 14.20 -14.20
+ 1.0929 329 4 exp 210 ------- 0 329.1 4.1 2 132 17.90 -17.90 -14.60 14.60
+ 1.0931 551 226 exp 210 ------- 0 551.1 226.1 0 133 40.10 -40.10 7.60 -7.60
- 1.0931 551 226 exp 210 ------- 0 551.1 226.1 0 133 40.10 -40.10 7.60 -7.60
+ 1.0932 68 393 exp 210 ------- 0 68.0 393.0 0 134 -8.20 8.20 24.30 -24.30
- 1.0932 68 393 exp 210 ------- 0 68.0 393.0 0 134 -8.20 8.20 24.30 -24.30
+ 1.0933 92 417 exp 210 ------- 0 92.0 417.0 0 135 -5.80 5.80 26.70 -26.70
- 1.0933 92 417 exp 210 ------- 0 92.0 417.0 0 135 -5.80 5.80 26.70 -26.70
+ 1.0938 517 192 exp 210 ------- 0 517.1 192.1 1 136 36.70 -36.70 4.20 -4.20
+ 1.0938 245 570 exp 210 ------- 0 245.0 570.0 1 137 9.50 -9.50 42.00 -42.00
+ 1.0945 266 591 exp 210 ------- 0 266.0 591.0 0 138 11.60 -11.60 44.10 -44.10
- 1.0945 266 591 exp 210 ------- 0 266.0 591.0 0 138 11.60 -11.60 44.10 -44.10
+ 1.0952 95 420 exp 210 ------- 0 95.0 420.0 0 139 -5.50 5.50 27.00 -27.00
- 1.0952 95 420 exp 210 ------- 0 95.0 420.0 0 139 -5.50 5.50 27.00 -27.00
+ 1.0970 650 325 exp 210 ------- 0 650.1 325.1 0 140 50.00 -50.00 17.50 -17.50
- 1.0970 650 325 exp 210 ------- 0 650.1 325.1 0 140 50.00 -50.00 17.50 -17.50
+ 1.0975 408 83 exp 210 ------- 0 408.1 83.1 0 141 25.80 -25.80 -6.70 6.70
- 1.0975 408 83 exp 210 ------- 0 408.1 83.1 0 141 25.80 -25.80 -6.70 6.70
+ 1.0977 596 271 exp 210 ------- 0 596.1 271.1 0 142 44.60 -44.60 12.10 -12.10
- 1.0977 596 271 exp 210 ------- 0 596.1 271.1 0 142 44.60 -44.60 12.10 -12.10
+ 1.0981 166 491 exp 210 ------- 0 166.0 491.0 0 143 1.60 -1.60 34.10 -34.10
- 1.0981 166 491 exp 210 ------- 0 166.0 491.0 0 143 1.60 -1.60 34.10 -34.10
+ 1.0994 348 23 exp 210 ------- 0 348.1 23.1 0 144 19.80 -19.80 -12.70 12.70
- 1.0994 348 23 exp 210 ------- 0 348.1 23.1 0 144 19.80 -19.80 -12.70 12.70
+ 1.0995 160 485 exp 210 ------- 0 160.0 485.0 0 145 1.00 -1.00 33.50 -33.50
- 1.0995 160 485 exp 210 ------- 0 160.0 485.0 0 145 1.00 -1.00 33.50 -33.50
+ 1.0996 393 68 exp 210 ------- 0 393.1 68.1 0 146 24.30 -24.30 -8.20 8.20
- 1.0996 393 68 exp 210 ------- 0 393.1 68.1 0 146 24.30 -24.30 -8.20 8.20
+ 1.0997 239 564 exp 210 ------- 0 239.0 564.0 0 147 8.90 -8.90 41.40 -41.40
- 1.0997 239 564 exp 210 ------- 0 239.0 564.0 0 147 8.90 -8.90 41.40 -41.40
+ 1.1001 16 341 exp 210 ------- 0 16.0 341.0 1 148 -13.40 13.40 19.10 -19.10
+ 1.1015 4 329 exp 210 ------- 0 4.0 329.0 0 149 -14.60 14.60 17.90 -17.90
- 1.1015 4 329 exp 210 ------- 0 4.0 329.0 0 149 -14.60 14.60 17.90 -17.90
+ 1.1021 42 367 exp 210 ------- 0 42.0 367.0 0 150 -10.80 10.80 21.70 -21.70
- 1.1021 42 367 exp 210 ------- 0 42.0 367.0 0 150 -10.80 10.80 21.70 -21.70
+ 1.1021 619 294 exp 210 ------- 0 619.1 294.1 0 151 46.90 -46.90 14.40 -14.40
- 1.1021 619 294 exp 210 ------- 0 619.1 294.1 0 151 46.90 -46.90 14.40 -14.40
+ 1.1022 411 86 exp 210 ------- 0 411.1 86.1 0 152 26.10 -26.10 -6.40 6.40
- 1.1022 411 86 exp 210 ------- 0 411.1 86.1 0 152 26.10 -26.10 -6.40 6.40
+ 1.1022 178 503 exp 210 ------- 0 178.0 503.0 0 153 2.80 -2.80 35.30 -35.30
- 1.1022 178 503 exp 210 ------- 0 178.0 503.0 0 153 2.80 -2.80 35.30 -35.30
+ 1.1023 514 189 exp 210 ------- 0 514.1 189.1 0 154 36.40 -36.40 3.90 -3.90
- 1.1023 514 189 exp 210 ------- 0 514.1 189.1 0 154 36.40 -36.40 3.90 -3.90
+ 1.1037 224 549 exp 210 ------- 0 224.0 549.0 0 155 7.40 -7.40 39.90 -39.90
- 1.1037 224 549 exp 210 ------- 0 224.0 549.0 0 155 7.40 -7.40 39.90 -39.90
+ 1.1042 261 586 exp 210 ------- 0 261.0 586.0 1 156 11.10 -11.10 43.60 -43.60
+ 1.1044 613 288 exp 210 ------- 0 613.1 288.1 0 157 46.30 -46.30 13.80 -13.80
- 1.1044 613 288 exp 210 ------- 0 613.1 288.1 0 157 46.30 -46.30 13.80 -13.80
+ 1.1073 481 156 exp 210 ------- 0 481.1 156.1 0 158 33.10 -33.10 0.60 -0.60
- 1.1073 481 156 exp 210 ------- 0 481.1 156.1 0 158 33.10 -33.10 0.60 -0.60
+ 1.1093 450 125 exp 210 ------- 0 450.1 125.1 0 159 30.00 -30.00 -2.50 2.50
- 1.1093 450 125 exp 210 ------- 0 450.1 125.1 0 159 30.00 -30.00 -2.50 2.50
+ 1.1096 159 484 exp 210 ------- 0 159.0 484.0 0 160 0.90 -0.90 33.40 -33.40
- 1.1096 159 484 exp 210 ------- 0 159.0 484.0 0 160 0.90 -0.90 33.40 -33.40
+ 1.1097 599 274 exp 210 ------- 0 599.1 274.1 1 161 44.90 -44.90 12.40 -12.40
+ 1.1105 440 115 exp 210 ------- 0 440.1 115.1 0 162 29.00 -29.00 -3.50 3.50
- 1.1105 440 115 exp 210 ------- 0 440.1 115.1 0 162 29.00 -29.00 -3.50 3.50
+ 1.1110 499 174 exp 210 ------- 0 499.1 174.1 0 163 34.90 -34.90 2.40 -2.40
- 1.1110 499 174 exp 210 ------- 0 499.1 174.1 0 163 34.90 -34.90 2.40 -2.40
+ 1.1111 526 201 exp 210 ------- 0 526.1 201.1 0 164 37.60 -37.60 5.10 -5.10
- 1.1111 526 201 exp 210 ------- 0 526.1 201.1 0 164 37.60 -37.60 5.10 -5.10
+ 1.1118 259 584 exp 210 ------- 0 259.0 584.0 2 165 10.90 -10.90 43.40 -43.40
+ 1.1119 73 398 exp 210 ------- 0 73.0 398.0 1 166 -7.70 7.70 24.80 -24.80
+ 1.1123 3 328 exp 210 ------- 0 3.0 328.0 0 167 -14.70 14.70 17.80 -17.80
- 1.1123 3 328 exp 210 ------- 0 3.0 328.0 0 167 -14.70 14.70 17.80 -17.80
+ 1.1129 274 599 exp 210 ------- 0 274.0 599.0 0 168 12.40 -12.40 44.90 -44.90
- 1.1129 274 599 exp 210 ------- 0 274.0 599.0 0 168 12.40 -12.40 44.90 -44.90
+ 1.1135 152 477 exp 210 ------- 0 152.0 477.0 0 169 0.20 -0.20 32.70 -32.70
- 1.1135 152 477 exp 210 ------- 0 152.0 477.0 0 169 0.20 -0.20 32.70 -32.70
+ 1.1139 381 56 exp 210 ------- 0 381.1 56.1 1 170 23.10 -23.10 -9.40 9.40
+ 1.1153 258 583 exp 210 ------- 0 258.0 583.0 0 171 10.80 -10.80 43.30 -43.30
- 1.1153 258 583 exp 210 ------- 0 258.0 583.0 0 171 10.80 -10.80 43.30 -43.30
+ 1.1157 97 422 exp 210 ------- 0 97.0 422.0 0 172 -5.30 5.30 27.20 -27.20
- 1.1157 97 422 exp 210 ------- 0 97.0 422.0 0 172 -5.30 5.30 27.20 -27.20
+ 1.1168 187 512 exp 210 ------- 0 187.0 512.0 0 173 3.70 -3.70 36.20 -36.20
- 1.1168 187 512 exp 210 ------- 0 187.0 512.0 0 173 3.70 -3.70 36.20 -36.20
+ 1.1173 208 533 exp 210 ------- 0 208.0 533.0 0 174 5.80 -5.80 38.30 -38.30
- 1.1173 208 533 exp 210 ------- 0 208.0 533.0 0 174 5.80 -5.80 38.30 -38.30
+ 1.1177 251 576 exp 210 ------- 0 251.0 576.0 0 175 10.10 -10.10 42.60 -42.60
- 1.1177 251 576 exp 210 ------- 0 251.0 576.0 0 175 10.10 -10.10 42.60 -42.60
+ 1.1183 54 379 exp 210 ------- 0 54.0 379.0 0 176 -9.60 9.60 22.90 -22.90
- 1.1183 54 379 exp 210 ------- 0 54.0 379.0 0 176 -9.60 9.60 22.90 -22.90
+ 1.1184 227 552 exp 210 ------- 0 227.0 552.0 0 177 7.70 -7.70 40.20 -40.20
- 1.1184 227 552 exp 210 ------- 0 227.0 552.0 0 177 7.70 -7.70 40.20 -40.20
+ 1.1197 97 422 exp 210 ------- 0 97.0 422.0 1 178 -5.30 5.30 27.20 -27.20
+ 1.1203 219 544 exp 210 ------- 0 219.0 544.0 0 179 6.90 -6.90 39.40 -39.40
- 1.1203 219 544 exp 210 ------- 0 219.0 544.0 0 179 6.90 -6.90 39.40 -39.40
+ 1.1212 30 355 exp 210 ------- 0 30.0 355.0 0 180 -12.00 12.00 20.50 -20.50
- 1.1212 30 355 exp 210 ------- 0 30.0 355.0 0 180 -12.00 12.00 20.50 -20.50
+ 1.1221 75 400 exp 210 ------- 0 75.0 400.0 1 181 -7.50 7.50 25.00 -25.00
+ 1.1226 621 296 exp 210 ------- 0 621.1 296.1 0 182 47.10 -47.10 14.60 -14.60
- 1.1226 621 296 exp 210 ------- 0 621.1 296.1 0 182 47.10 -47.10 14.60 -14.60
+ 1.1238 203 528 exp 210 ------- 0 203.0 528.0 0 183 5.30 -5.30 37.80 -37.80
- 1.1238 203 528 exp 210 ------- 0 203.0 528.0 0 183 5.30 -5.30 37.80 -37.80
+ 1.1249 534 209 exp 210 ------- 0 534.1 209.1 0 184 38.40 -38.40 5.90 -5.90
- 1.1249 534 209 exp 210 ------- 0 534.1 209.1 0 184 38.40 -38.40 5.90 -5.90
+ 1.1249 353 28 exp 210 ------- 0 353.1 28.1 0 185 20.30 -20.30 -12.20 12.20
- 1.1249 353 28 exp 210 ------- 0 353.1 28.1 0 185 20.30 -20.30 -12.20 12.20
+ 1.1251 292 617 exp 210 ------- 0 292.0 617.0 0 186 14.20 -14.20 46.70 -46.70
- 1.1251 292 617 exp 210 ------- 0 292.0 617.0 0 186 14.20 -14.20 46.70 -46.70
+ 1.1255 523 198 exp 210 ------- 0 523.1 198.1 0 187 37.30 -37.30 4.80 -4.80
- 1.1255 523 198 exp 210 ------- 0 523.1 198.1 0 187 37.30 -37.30 4.80 -4.80
+ 1.1256 51 376 exp 210 ------- 0 51.0 376.0 1 188 -9.90 9.90 22.60 -22.60
+ 1.1264 117 442 exp 210 ------- 0 117.0 442.0 0 189 -3.30 3.30 29.20 -29.20
- 1.1264 117 442 exp 210 ------- 0 117.0 442.0 0 189 -3.30 3.30 29.20 -29.20
+ 1.1286 159 484 exp 210 ------- 0 159.0 484.0 1 190 0.90 -0.90 33.40 -33.40
+ 1.1290 535 210 exp 210 ------- 0 535.1 210.1 0 191 38.50 -38.50 6.00 -6.00
- 1.1290 535 210 exp 210 ------- 0 535.1 210.1 0 191 38.50 -38.50 6.00 -6.00
+ 1.1291 31 356 exp 210 ------- 0 31.0 356.0 0 192 -11.90 11.90 20.60 -20.60
- 1.1291 31 356 exp 210 ------- 0 31.0 356.0 0 192 -11.90 11.90 20.60 -20.60
+ 1.1304 326 1 exp 210 ------- 0 326.1 1.1 1 193 17.60 -17.60 -14.90 14.90
+ 1.1314 457 132 exp 210 ------- 0 457.1 132.1 0 194 30.70 -30.70 -1.80 1.80
- 1.1314 457 132 exp 210 ------- 0 457.1 132.1 0 194 30.70 -30.70 -1.80 1.80
+ 1.1316 545 220 exp 210 ------- 0 545.1 220.1 0 195 39.50 -39.50 7.00 -7.00
- 1.1316 545 220 exp 210 ------- 0 545.1 220.1 0 195 39.50 -39.50 7.00 -7.00
+ 1.1317 487 162 exp 210 ------- 0 487.1 162.1 1 196 33.70 -33.70 1.20 -1.20
+ 1.1317 295 620 exp 210 ------- 0 295.0 620.0 2 197 14.50 -14.50 47.00 -47.00
+ 1.1328 152 477 exp 210 ------- 0 152.0 477.0 1 198 0.20 -0.20 32.70 -32.70
+ 1.1328 598 273 exp 210 ------- 0 598.1 273.1 0 199 44.80 -44.80 12.30 -12.30
- 1.1328 598 273 exp 210 ------- 0 598.1 273.1 0 199 44.80 -44.80 12.30 -12.30
+ 1.1331 481 156 exp 210 ------- 0 481.1 156.1 1 200 33.10 -33.10 0.60 -0.60
+ 1.1358 353 28 exp 210 ------- 0 353.1 28.1 1 201 20.30 -20.30 -12.20 12.20
+ 1.1359 17 342 exp 210 ------- 0 17.0 342.0 0 202 -13.30 13.30 19.20 -19.20
- 1.1359 17 342 exp 210 ------- 0 17.0 342.0 0 202 -13.30 13.30 19.20 -19.20
+ 1.1366 377 52 exp 210 ------- 0 377.1 52.1 0 203 22.70 -22.70 -9.80 9.80
- 1.1366 377 52 exp 210 ------- 0 377.1 52.1 0 203 22.70 -22.70 -9.80 9.80
+ 1.1371 20 345 exp 210 ------- 0 20.0 345.0 1 204 -13.00 13.00 19.50 -19.50
+ 1.1390 240 565 exp 210 ------- 0 240.0 565.0 2 205 9.00 -9.00 41.50 -41.50
+ 1.1392 460 135 exp 210 ------- 0 460.1 135.1 0 206 31.00 -31.00 -1.50 1.50
- 1.1392 460 135 exp 210 ------- 0 460.1 135.1 0 206 31.00 -31.00 -1.50 1.50
+ 1.1393 245 570 exp 210 ------- 0 245.0 570.0 2 207 9.50 -9.50 42.00 -42.00
+ 1.1399 271 596 exp 210 ------- 0 271.0 596.0 0 208 12.10 -12.10 44.60 -44.60
- 1.1399 271 596 exp 210 ------- 0 271.0 596.0 0 208 12.10 -12.10 44.60 -44.60
+ 1.1400 288 613 exp 210 ------- 0 288.0 613.0 0 209 13.80 -13.80 46.30 -46.30
- 1.1400 288 613 exp 210 ------- 0 288.0 613.0 0 209 13.80 -13.80 46.30 -46.30
+ 1.1405 53 378 exp 210 ------- 0 53.0 378.0 0 210 -9.70 9.70 22.80 -22.80
- 1.1405 53 378 exp 210 ------- 0 53.0 378.0 0 210 -9.70 9.70 22.80 -22.80
+ 1.1409 481 156 exp 210 ------- 0 481.1 156.1 2 211 33.10 -33.10 0.60 -0.60
+ 1.1423 504 179 exp 210 ------- 0 504.1 179.1 0 212 35.40 -35.40 2.90 -2.90
- 1.1423 504 179 exp 210 ------- 0 504.1 179.1 0 212 35.40 -35.40 2.90 -2.90